
     Program PWSCF v.6.8 starts on 28Mar2023 at 16:25:52 

     This program is part of the open-source Quantum ESPRESSO suite
     for quantum simulation of materials; please cite
         "P. Giannozzi et al., J. Phys.:Condens. Matter 21 395502 (2009);
         "P. Giannozzi et al., J. Phys.:Condens. Matter 29 465901 (2017);
         "P. Giannozzi et al., J. Chem. Phys. 152 154105 (2020);
          URL http://www.quantum-espresso.org", 
     in publications or presentations arising from this work. More details at
     http://www.quantum-espresso.org/quote

     Parallel version (MPI & OpenMP), running on       6 processor cores
     Number of MPI processes:                 6
     Threads/MPI process:                     1

     MPI processes distributed on     1 nodes
     R & G space division:  proc/nbgrp/npool/nimage =       6
     191581 MiB available memory on the printing compute node when the environment starts
 
     Waiting for input...
     Reading input from standard input

     Current dimensions of program PWSCF are:
     Max number of different atomic species (ntypx) = 10
     Max number of k-points (npk) =  40000
     Max angular momentum in pseudopotentials (lmaxx) =  4

     Subspace diagonalization in iterative solution of the eigenvalue problem:
     one sub-group per band group will be used
     scalapack distributed-memory algorithm (size of sub-group:  2*  2 procs)

 
     Parallelization info
     --------------------
     sticks:   dense  smooth     PW     G-vecs:    dense   smooth      PW
     Min         251     251     70                12763    12763    1900
     Max         252     252     71                12768    12768    1905
     Sum        1507    1507    421                76595    76595   11405
 
     Using Slab Decomposition
 


     bravais-lattice index     =            4
     lattice parameter (alat)  =       6.0282  a.u.
     unit-cell volume          =     308.6570 (a.u.)^3
     number of atoms/cell      =            4
     number of atomic types    =            2
     number of electrons       =        36.00
     number of Kohn-Sham states=           18
     kinetic-energy cutoff     =     150.0000  Ry
     charge density cutoff     =     600.0000  Ry
     scf convergence threshold =      1.0E-08
     mixing beta               =       0.7000
     number of iterations used =            8  plain     mixing
     energy convergence thresh.=      1.0E-05
     force convergence thresh. =      1.0E-04
     press convergence thresh. =      5.0E-01
     Exchange-correlation= PBE
                           (   1   4   3   4   0   0   0)
     nstep                     =           50


     celldm(1)=   6.028226  celldm(2)=   0.000000  celldm(3)=   1.626960
     celldm(4)=   0.000000  celldm(5)=   0.000000  celldm(6)=   0.000000

     crystal axes: (cart. coord. in units of alat)
               a(1) = (   1.000000   0.000000   0.000000 )  
               a(2) = (  -0.500000   0.866025   0.000000 )  
               a(3) = (   0.000000   0.000000   1.626960 )  

     reciprocal axes: (cart. coord. in units 2 pi/alat)
               b(1) = (  1.000000  0.577350  0.000000 )  
               b(2) = (  0.000000  1.154701  0.000000 )  
               b(3) = (  0.000000  0.000000  0.614643 )  


     PseudoPot. # 1 for Ga read from file:
     ../pseudo/Ga_ONCV_PBE_sr.upf
     MD5 check sum: e3654b1fbeb096be7359f640ef9d98d7
     Pseudo is Norm-conserving + core correction, Zval = 13.0
     Generated using ONCVPSP code by D. R. Hamann
     Using radial grid of 1902 points,  6 beta functions with: 
                l(1) =   0
                l(2) =   0
                l(3) =   1
                l(4) =   1
                l(5) =   2
                l(6) =   2

     PseudoPot. # 2 for N  read from file:
     ../pseudo/N_ONCV_PBE_sr.upf
     MD5 check sum: 18c6af81dac9c5a2d6d52ed11cf7bfee
     Pseudo is Norm-conserving + core correction, Zval =  5.0
     Generated using ONCVPSP code by D. R. Hamann
     Using radial grid of 1058 points,  4 beta functions with: 
                l(1) =   0
                l(2) =   0
                l(3) =   1
                l(4) =   1

     atomic species   valence    mass     pseudopotential
        Ga            13.00    69.72300     Ga( 1.00)
        N              5.00    14.00700     N ( 1.00)

     12 Sym. Ops. (no inversion) found ( 6 have fractional translation)


                                    s                        frac. trans.

      isym =  1     identity                                     

 cryst.   s( 1) = (     1          0          0      )
                  (     0          1          0      )
                  (     0          0          1      )

 cart.    s( 1) = (  1.0000000  0.0000000  0.0000000 )
                  (  0.0000000  1.0000000  0.0000000 )
                  (  0.0000000  0.0000000  1.0000000 )


      isym =  2     180 deg rotation - cart. axis [0,0,1]        

 cryst.   s( 2) = (    -1          0          0      )    f =(  0.0000000 )
                  (     0         -1          0      )       (  0.0000000 )
                  (     0          0          1      )       ( -0.5000000 )

 cart.    s( 2) = ( -1.0000000  0.0000000  0.0000000 )    f =(  0.0000000 )
                  (  0.0000000 -1.0000000  0.0000000 )       (  0.0000000 )
                  (  0.0000000  0.0000000  1.0000000 )       ( -0.8134800 )


      isym =  3      60 deg rotation - cryst. axis [0,0,1]       

 cryst.   s( 3) = (     1          1          0      )    f =(  0.0000000 )
                  (    -1          0          0      )       (  0.0000000 )
                  (     0          0          1      )       ( -0.5000000 )

 cart.    s( 3) = (  0.5000000 -0.8660254  0.0000000 )    f =(  0.0000000 )
                  (  0.8660254  0.5000000  0.0000000 )       (  0.0000000 )
                  (  0.0000000  0.0000000  1.0000000 )       ( -0.8134800 )


      isym =  4      60 deg rotation - cryst. axis [0,0,-1]      

 cryst.   s( 4) = (     0         -1          0      )    f =(  0.0000000 )
                  (     1          1          0      )       (  0.0000000 )
                  (     0          0          1      )       ( -0.5000000 )

 cart.    s( 4) = (  0.5000000  0.8660254  0.0000000 )    f =(  0.0000000 )
                  ( -0.8660254  0.5000000  0.0000000 )       (  0.0000000 )
                  (  0.0000000  0.0000000  1.0000000 )       ( -0.8134800 )


      isym =  5     120 deg rotation - cryst. axis [0,0,1]       

 cryst.   s( 5) = (     0          1          0      )
                  (    -1         -1          0      )
                  (     0          0          1      )

 cart.    s( 5) = ( -0.5000000 -0.8660254  0.0000000 )
                  (  0.8660254 -0.5000000  0.0000000 )
                  (  0.0000000  0.0000000  1.0000000 )


      isym =  6     120 deg rotation - cryst. axis [0,0,-1]      

 cryst.   s( 6) = (    -1         -1          0      )
                  (     1          0          0      )
                  (     0          0          1      )

 cart.    s( 6) = ( -0.5000000  0.8660254  0.0000000 )
                  ( -0.8660254 -0.5000000  0.0000000 )
                  (  0.0000000  0.0000000  1.0000000 )


      isym =  7     inv. 180 deg rotation - cart. axis [0,1,0]   

 cryst.   s( 7) = (     1          0          0      )    f =(  0.0000000 )
                  (    -1         -1          0      )       (  0.0000000 )
                  (     0          0          1      )       ( -0.5000000 )

 cart.    s( 7) = (  1.0000000  0.0000000  0.0000000 )    f =(  0.0000000 )
                  (  0.0000000 -1.0000000  0.0000000 )       (  0.0000000 )
                  (  0.0000000  0.0000000  1.0000000 )       ( -0.8134800 )


      isym =  8     inv. 180 deg rotation - cart. axis [1,0,0]   

 cryst.   s( 8) = (    -1          0          0      )
                  (     1          1          0      )
                  (     0          0          1      )

 cart.    s( 8) = ( -1.0000000  0.0000000  0.0000000 )
                  (  0.0000000  1.0000000  0.0000000 )
                  (  0.0000000  0.0000000  1.0000000 )


      isym =  9     inv. 180 deg rotation - cryst. axis [1,-1,0] 

 cryst.   s( 9) = (     0          1          0      )    f =(  0.0000000 )
                  (     1          0          0      )       (  0.0000000 )
                  (     0          0          1      )       ( -0.5000000 )

 cart.    s( 9) = ( -0.5000000  0.8660254  0.0000000 )    f =(  0.0000000 )
                  (  0.8660254  0.5000000  0.0000000 )       (  0.0000000 )
                  (  0.0000000  0.0000000  1.0000000 )       ( -0.8134800 )


      isym = 10     inv. 180 deg rotation - cryst. axis [2,1,0]  

 cryst.   s(10) = (    -1         -1          0      )    f =(  0.0000000 )
                  (     0          1          0      )       (  0.0000000 )
                  (     0          0          1      )       ( -0.5000000 )

 cart.    s(10) = ( -0.5000000 -0.8660254  0.0000000 )    f =(  0.0000000 )
                  ( -0.8660254  0.5000000  0.0000000 )       (  0.0000000 )
                  (  0.0000000  0.0000000  1.0000000 )       ( -0.8134800 )


      isym = 11     inv. 180 deg rotation - cryst. axis [0,1,0]  

 cryst.   s(11) = (     1          1          0      )
                  (     0         -1          0      )
                  (     0          0          1      )

 cart.    s(11) = (  0.5000000  0.8660254  0.0000000 )
                  (  0.8660254 -0.5000000  0.0000000 )
                  (  0.0000000  0.0000000  1.0000000 )


      isym = 12     inv. 180 deg rotation - cryst. axis [1,1,0]  

 cryst.   s(12) = (     0         -1          0      )
                  (    -1          0          0      )
                  (     0          0          1      )

 cart.    s(12) = (  0.5000000 -0.8660254  0.0000000 )
                  ( -0.8660254 -0.5000000  0.0000000 )
                  (  0.0000000  0.0000000  1.0000000 )


     point group C_6v (6mm) 
     there are  6 classes
     the character table:

       E     2C6   2C3   C2    3s_v  3s_d 
A_1    1.00  1.00  1.00  1.00  1.00  1.00
A_2    1.00  1.00  1.00  1.00 -1.00 -1.00
B_1    1.00 -1.00  1.00 -1.00  1.00 -1.00
B_2    1.00 -1.00  1.00 -1.00 -1.00  1.00
E_1    2.00  1.00 -1.00 -2.00  0.00  0.00
E_2    2.00 -1.00 -1.00  2.00  0.00  0.00

     the symmetry operations in each class and the name of the first element:

     E        1
          identity                                               
     2C6      3    4
           60 deg rotation - cryst. axis [0,0,1]                 
     2C3      5    6
          120 deg rotation - cryst. axis [0,0,1]                 
     C2       2
          180 deg rotation - cart. axis [0,0,1]                  
     3s_v     8   12   11
          inv. 180 deg rotation - cart. axis [1,0,0]             
     3s_d     7    9   10
          inv. 180 deg rotation - cart. axis [0,1,0]             

   Cartesian axes

     site n.     atom                  positions (alat units)
         1           Ga  tau(   1) = (   0.5000000   0.2886751   0.8119892  )
         2           Ga  tau(   2) = (   0.0000000   0.5773503   1.6254692  )
         3           N   tau(   3) = (   0.5000000   0.2886751   1.4250808  )
         4           N   tau(   4) = (   0.0000000   0.5773503   0.6116008  )

   Crystallographic axes

     site n.     atom                  positions (cryst. coord.)
         1           Ga  tau(   1) = (  0.6666667  0.3333333  0.4990837  )
         2           Ga  tau(   2) = (  0.3333333  0.6666667  0.9990837  )
         3           N   tau(   3) = (  0.6666667  0.3333333  0.8759163  )
         4           N   tau(   4) = (  0.3333333  0.6666667  0.3759163  )

     number of k points=    84
                       cart. coord. in units 2pi/alat
        k(    1) = (   0.0000000   0.0000000   0.0000000), wk =   0.0020000
        k(    2) = (   0.0000000   0.0000000   0.0614643), wk =   0.0040000
        k(    3) = (   0.0000000   0.0000000   0.1229287), wk =   0.0040000
        k(    4) = (   0.0000000   0.0000000   0.1843930), wk =   0.0040000
        k(    5) = (   0.0000000   0.0000000   0.2458573), wk =   0.0040000
        k(    6) = (   0.0000000   0.0000000  -0.3073216), wk =   0.0020000
        k(    7) = (   0.0000000   0.1154701   0.0000000), wk =   0.0120000
        k(    8) = (   0.0000000   0.1154701   0.0614643), wk =   0.0240000
        k(    9) = (   0.0000000   0.1154701   0.1229287), wk =   0.0240000
        k(   10) = (   0.0000000   0.1154701   0.1843930), wk =   0.0240000
        k(   11) = (   0.0000000   0.1154701   0.2458573), wk =   0.0240000
        k(   12) = (   0.0000000   0.1154701  -0.3073216), wk =   0.0120000
        k(   13) = (   0.0000000   0.2309401   0.0000000), wk =   0.0120000
        k(   14) = (   0.0000000   0.2309401   0.0614643), wk =   0.0240000
        k(   15) = (   0.0000000   0.2309401   0.1229287), wk =   0.0240000
        k(   16) = (   0.0000000   0.2309401   0.1843930), wk =   0.0240000
        k(   17) = (   0.0000000   0.2309401   0.2458573), wk =   0.0240000
        k(   18) = (   0.0000000   0.2309401  -0.3073216), wk =   0.0120000
        k(   19) = (   0.0000000   0.3464102   0.0000000), wk =   0.0120000
        k(   20) = (   0.0000000   0.3464102   0.0614643), wk =   0.0240000
        k(   21) = (   0.0000000   0.3464102   0.1229287), wk =   0.0240000
        k(   22) = (   0.0000000   0.3464102   0.1843930), wk =   0.0240000
        k(   23) = (   0.0000000   0.3464102   0.2458573), wk =   0.0240000
        k(   24) = (   0.0000000   0.3464102  -0.3073216), wk =   0.0120000
        k(   25) = (   0.0000000   0.4618802   0.0000000), wk =   0.0120000
        k(   26) = (   0.0000000   0.4618802   0.0614643), wk =   0.0240000
        k(   27) = (   0.0000000   0.4618802   0.1229287), wk =   0.0240000
        k(   28) = (   0.0000000   0.4618802   0.1843930), wk =   0.0240000
        k(   29) = (   0.0000000   0.4618802   0.2458573), wk =   0.0240000
        k(   30) = (   0.0000000   0.4618802  -0.3073216), wk =   0.0120000
        k(   31) = (   0.0000000  -0.5773503   0.0000000), wk =   0.0060000
        k(   32) = (   0.0000000  -0.5773503   0.0614643), wk =   0.0120000
        k(   33) = (   0.0000000  -0.5773503   0.1229287), wk =   0.0120000
        k(   34) = (   0.0000000  -0.5773503   0.1843930), wk =   0.0120000
        k(   35) = (   0.0000000  -0.5773503   0.2458573), wk =   0.0120000
        k(   36) = (   0.0000000  -0.5773503  -0.3073216), wk =   0.0060000
        k(   37) = (   0.1000000   0.1732051   0.0000000), wk =   0.0120000
        k(   38) = (   0.1000000   0.1732051   0.0614643), wk =   0.0240000
        k(   39) = (   0.1000000   0.1732051   0.1229287), wk =   0.0240000
        k(   40) = (   0.1000000   0.1732051   0.1843930), wk =   0.0240000
        k(   41) = (   0.1000000   0.1732051   0.2458573), wk =   0.0240000
        k(   42) = (   0.1000000   0.1732051  -0.3073216), wk =   0.0120000
        k(   43) = (   0.1000000   0.2886751   0.0000000), wk =   0.0240000
        k(   44) = (   0.1000000   0.2886751   0.0614643), wk =   0.0480000
        k(   45) = (   0.1000000   0.2886751   0.1229287), wk =   0.0480000
        k(   46) = (   0.1000000   0.2886751   0.1843930), wk =   0.0480000
        k(   47) = (   0.1000000   0.2886751   0.2458573), wk =   0.0480000
        k(   48) = (   0.1000000   0.2886751  -0.3073216), wk =   0.0240000
        k(   49) = (   0.1000000   0.4041452   0.0000000), wk =   0.0240000
        k(   50) = (   0.1000000   0.4041452   0.0614643), wk =   0.0480000
        k(   51) = (   0.1000000   0.4041452   0.1229287), wk =   0.0480000
        k(   52) = (   0.1000000   0.4041452   0.1843930), wk =   0.0480000
        k(   53) = (   0.1000000   0.4041452   0.2458573), wk =   0.0480000
        k(   54) = (   0.1000000   0.4041452  -0.3073216), wk =   0.0240000
        k(   55) = (   0.1000000   0.5196152   0.0000000), wk =   0.0240000
        k(   56) = (   0.1000000   0.5196152   0.0614643), wk =   0.0480000
        k(   57) = (   0.1000000   0.5196152   0.1229287), wk =   0.0480000
        k(   58) = (   0.1000000   0.5196152   0.1843930), wk =   0.0480000
        k(   59) = (   0.1000000   0.5196152   0.2458573), wk =   0.0480000
        k(   60) = (   0.1000000   0.5196152  -0.3073216), wk =   0.0240000
        k(   61) = (   0.2000000   0.3464102   0.0000000), wk =   0.0120000
        k(   62) = (   0.2000000   0.3464102   0.0614643), wk =   0.0240000
        k(   63) = (   0.2000000   0.3464102   0.1229287), wk =   0.0240000
        k(   64) = (   0.2000000   0.3464102   0.1843930), wk =   0.0240000
        k(   65) = (   0.2000000   0.3464102   0.2458573), wk =   0.0240000
        k(   66) = (   0.2000000   0.3464102  -0.3073216), wk =   0.0120000
        k(   67) = (   0.2000000   0.4618802   0.0000000), wk =   0.0240000
        k(   68) = (   0.2000000   0.4618802   0.0614643), wk =   0.0480000
        k(   69) = (   0.2000000   0.4618802   0.1229287), wk =   0.0480000
        k(   70) = (   0.2000000   0.4618802   0.1843930), wk =   0.0480000
        k(   71) = (   0.2000000   0.4618802   0.2458573), wk =   0.0480000
        k(   72) = (   0.2000000   0.4618802  -0.3073216), wk =   0.0240000
        k(   73) = (   0.2000000   0.5773503   0.0000000), wk =   0.0120000
        k(   74) = (   0.2000000   0.5773503   0.0614643), wk =   0.0240000
        k(   75) = (   0.2000000   0.5773503   0.1229287), wk =   0.0240000
        k(   76) = (   0.2000000   0.5773503   0.1843930), wk =   0.0240000
        k(   77) = (   0.2000000   0.5773503   0.2458573), wk =   0.0240000
        k(   78) = (   0.2000000   0.5773503  -0.3073216), wk =   0.0120000
        k(   79) = (   0.3000000   0.5196152   0.0000000), wk =   0.0120000
        k(   80) = (   0.3000000   0.5196152   0.0614643), wk =   0.0240000
        k(   81) = (   0.3000000   0.5196152   0.1229287), wk =   0.0240000
        k(   82) = (   0.3000000   0.5196152   0.1843930), wk =   0.0240000
        k(   83) = (   0.3000000   0.5196152   0.2458573), wk =   0.0240000
        k(   84) = (   0.3000000   0.5196152  -0.3073216), wk =   0.0120000

                       cryst. coord.
        k(    1) = (   0.0000000   0.0000000   0.0000000), wk =   0.0020000
        k(    2) = (   0.0000000   0.0000000   0.1000000), wk =   0.0040000
        k(    3) = (   0.0000000   0.0000000   0.2000000), wk =   0.0040000
        k(    4) = (   0.0000000   0.0000000   0.3000000), wk =   0.0040000
        k(    5) = (   0.0000000   0.0000000   0.4000000), wk =   0.0040000
        k(    6) = (   0.0000000   0.0000000  -0.5000000), wk =   0.0020000
        k(    7) = (   0.0000000   0.1000000   0.0000000), wk =   0.0120000
        k(    8) = (   0.0000000   0.1000000   0.1000000), wk =   0.0240000
        k(    9) = (   0.0000000   0.1000000   0.2000000), wk =   0.0240000
        k(   10) = (   0.0000000   0.1000000   0.3000000), wk =   0.0240000
        k(   11) = (   0.0000000   0.1000000   0.4000000), wk =   0.0240000
        k(   12) = (   0.0000000   0.1000000  -0.5000000), wk =   0.0120000
        k(   13) = (   0.0000000   0.2000000   0.0000000), wk =   0.0120000
        k(   14) = (   0.0000000   0.2000000   0.1000000), wk =   0.0240000
        k(   15) = (   0.0000000   0.2000000   0.2000000), wk =   0.0240000
        k(   16) = (   0.0000000   0.2000000   0.3000000), wk =   0.0240000
        k(   17) = (   0.0000000   0.2000000   0.4000000), wk =   0.0240000
        k(   18) = (   0.0000000   0.2000000  -0.5000000), wk =   0.0120000
        k(   19) = (   0.0000000   0.3000000   0.0000000), wk =   0.0120000
        k(   20) = (   0.0000000   0.3000000   0.1000000), wk =   0.0240000
        k(   21) = (   0.0000000   0.3000000   0.2000000), wk =   0.0240000
        k(   22) = (   0.0000000   0.3000000   0.3000000), wk =   0.0240000
        k(   23) = (   0.0000000   0.3000000   0.4000000), wk =   0.0240000
        k(   24) = (   0.0000000   0.3000000  -0.5000000), wk =   0.0120000
        k(   25) = (   0.0000000   0.4000000   0.0000000), wk =   0.0120000
        k(   26) = (   0.0000000   0.4000000   0.1000000), wk =   0.0240000
        k(   27) = (   0.0000000   0.4000000   0.2000000), wk =   0.0240000
        k(   28) = (   0.0000000   0.4000000   0.3000000), wk =   0.0240000
        k(   29) = (   0.0000000   0.4000000   0.4000000), wk =   0.0240000
        k(   30) = (   0.0000000   0.4000000  -0.5000000), wk =   0.0120000
        k(   31) = (   0.0000000  -0.5000000   0.0000000), wk =   0.0060000
        k(   32) = (   0.0000000  -0.5000000   0.1000000), wk =   0.0120000
        k(   33) = (   0.0000000  -0.5000000   0.2000000), wk =   0.0120000
        k(   34) = (   0.0000000  -0.5000000   0.3000000), wk =   0.0120000
        k(   35) = (   0.0000000  -0.5000000   0.4000000), wk =   0.0120000
        k(   36) = (   0.0000000  -0.5000000  -0.5000000), wk =   0.0060000
        k(   37) = (   0.1000000   0.1000000   0.0000000), wk =   0.0120000
        k(   38) = (   0.1000000   0.1000000   0.1000000), wk =   0.0240000
        k(   39) = (   0.1000000   0.1000000   0.2000000), wk =   0.0240000
        k(   40) = (   0.1000000   0.1000000   0.3000000), wk =   0.0240000
        k(   41) = (   0.1000000   0.1000000   0.4000000), wk =   0.0240000
        k(   42) = (   0.1000000   0.1000000  -0.5000000), wk =   0.0120000
        k(   43) = (   0.1000000   0.2000000   0.0000000), wk =   0.0240000
        k(   44) = (   0.1000000   0.2000000   0.1000000), wk =   0.0480000
        k(   45) = (   0.1000000   0.2000000   0.2000000), wk =   0.0480000
        k(   46) = (   0.1000000   0.2000000   0.3000000), wk =   0.0480000
        k(   47) = (   0.1000000   0.2000000   0.4000000), wk =   0.0480000
        k(   48) = (   0.1000000   0.2000000  -0.5000000), wk =   0.0240000
        k(   49) = (   0.1000000   0.3000000   0.0000000), wk =   0.0240000
        k(   50) = (   0.1000000   0.3000000   0.1000000), wk =   0.0480000
        k(   51) = (   0.1000000   0.3000000   0.2000000), wk =   0.0480000
        k(   52) = (   0.1000000   0.3000000   0.3000000), wk =   0.0480000
        k(   53) = (   0.1000000   0.3000000   0.4000000), wk =   0.0480000
        k(   54) = (   0.1000000   0.3000000  -0.5000000), wk =   0.0240000
        k(   55) = (   0.1000000   0.4000000   0.0000000), wk =   0.0240000
        k(   56) = (   0.1000000   0.4000000   0.1000000), wk =   0.0480000
        k(   57) = (   0.1000000   0.4000000   0.2000000), wk =   0.0480000
        k(   58) = (   0.1000000   0.4000000   0.3000000), wk =   0.0480000
        k(   59) = (   0.1000000   0.4000000   0.4000000), wk =   0.0480000
        k(   60) = (   0.1000000   0.4000000  -0.5000000), wk =   0.0240000
        k(   61) = (   0.2000000   0.2000000   0.0000000), wk =   0.0120000
        k(   62) = (   0.2000000   0.2000000   0.1000000), wk =   0.0240000
        k(   63) = (   0.2000000   0.2000000   0.2000000), wk =   0.0240000
        k(   64) = (   0.2000000   0.2000000   0.3000000), wk =   0.0240000
        k(   65) = (   0.2000000   0.2000000   0.4000000), wk =   0.0240000
        k(   66) = (   0.2000000   0.2000000  -0.5000000), wk =   0.0120000
        k(   67) = (   0.2000000   0.3000000   0.0000000), wk =   0.0240000
        k(   68) = (   0.2000000   0.3000000   0.1000000), wk =   0.0480000
        k(   69) = (   0.2000000   0.3000000   0.2000000), wk =   0.0480000
        k(   70) = (   0.2000000   0.3000000   0.3000000), wk =   0.0480000
        k(   71) = (   0.2000000   0.3000000   0.4000000), wk =   0.0480000
        k(   72) = (   0.2000000   0.3000000  -0.5000000), wk =   0.0240000
        k(   73) = (   0.2000000   0.4000000   0.0000000), wk =   0.0120000
        k(   74) = (   0.2000000   0.4000000   0.1000000), wk =   0.0240000
        k(   75) = (   0.2000000   0.4000000   0.2000000), wk =   0.0240000
        k(   76) = (   0.2000000   0.4000000   0.3000000), wk =   0.0240000
        k(   77) = (   0.2000000   0.4000000   0.4000000), wk =   0.0240000
        k(   78) = (   0.2000000   0.4000000  -0.5000000), wk =   0.0120000
        k(   79) = (   0.3000000   0.3000000   0.0000000), wk =   0.0120000
        k(   80) = (   0.3000000   0.3000000   0.1000000), wk =   0.0240000
        k(   81) = (   0.3000000   0.3000000   0.2000000), wk =   0.0240000
        k(   82) = (   0.3000000   0.3000000   0.3000000), wk =   0.0240000
        k(   83) = (   0.3000000   0.3000000   0.4000000), wk =   0.0240000
        k(   84) = (   0.3000000   0.3000000  -0.5000000), wk =   0.0120000

     Dense  grid:    76595 G-vectors     FFT dimensions: (  48,  48,  80)

     Dynamical RAM for                 wfc:       0.44 MB

     Dynamical RAM for     wfc (w. buffer):      37.26 MB

     Dynamical RAM for           str. fact:       0.39 MB

     Dynamical RAM for           local pot:       0.00 MB

     Dynamical RAM for          nlocal pot:       1.27 MB

     Dynamical RAM for                qrad:       7.86 MB

     Dynamical RAM for          rho,v,vnew:       1.32 MB

     Dynamical RAM for               rhoin:       0.44 MB

     Dynamical RAM for            rho*nmix:       3.12 MB

     Dynamical RAM for           G-vectors:       0.83 MB

     Dynamical RAM for          h,s,v(r/c):       0.01 MB

     Dynamical RAM for          <psi|beta>:       0.01 MB

     Dynamical RAM for                 psi:       0.88 MB

     Dynamical RAM for                hpsi:       0.88 MB

     Dynamical RAM for      wfcinit/wfcrot:       1.28 MB

     Estimated static dynamical RAM per process >      51.18 MB

     Estimated max dynamical RAM per process >      56.08 MB

     Estimated total dynamical RAM >     336.49 MB

     Initial potential from superposition of free atoms

     starting charge   35.99464, renormalised to   36.00000
     Starting wfcs are   26 randomized atomic wfcs

     total cpu time spent up to now is        2.4 secs

     Self-consistent Calculation

     iteration #  1     ecut=   150.00 Ry     beta= 0.70
     Davidson diagonalization with overlap

---- Real-time Memory Report at c_bands before calling an iterative solver
           132 MiB given to the printing process from OS
             0 MiB allocation reported by mallinfo(arena+hblkhd)
        191116 MiB available memory on the node where the printing process lives
------------------
     ethr =  1.00E-02,  avg # of iterations =  2.0

     total cpu time spent up to now is        4.3 secs

     total energy              =    -347.03647668 Ry
     estimated scf accuracy    <       1.04255674 Ry

     iteration #  2     ecut=   150.00 Ry     beta= 0.70
     Davidson diagonalization with overlap

---- Real-time Memory Report at c_bands before calling an iterative solver
           141 MiB given to the printing process from OS
             0 MiB allocation reported by mallinfo(arena+hblkhd)
        191071 MiB available memory on the node where the printing process lives
------------------
     ethr =  2.90E-03,  avg # of iterations =  3.0

     total cpu time spent up to now is        6.5 secs

     total energy              =    -347.38221235 Ry
     estimated scf accuracy    <       0.87353942 Ry

     iteration #  3     ecut=   150.00 Ry     beta= 0.70
     Davidson diagonalization with overlap

---- Real-time Memory Report at c_bands before calling an iterative solver
           145 MiB given to the printing process from OS
             0 MiB allocation reported by mallinfo(arena+hblkhd)
        191049 MiB available memory on the node where the printing process lives
------------------
     ethr =  2.43E-03,  avg # of iterations =  2.0

     negative rho (up, down):  6.193E-07 0.000E+00

     total cpu time spent up to now is        8.3 secs

     total energy              =    -347.48876725 Ry
     estimated scf accuracy    <       0.02821478 Ry

     iteration #  4     ecut=   150.00 Ry     beta= 0.70
     Davidson diagonalization with overlap

---- Real-time Memory Report at c_bands before calling an iterative solver
           145 MiB given to the printing process from OS
             0 MiB allocation reported by mallinfo(arena+hblkhd)
        191052 MiB available memory on the node where the printing process lives
------------------
     ethr =  7.84E-05,  avg # of iterations =  5.0

     negative rho (up, down):  8.405E-08 0.000E+00

     total cpu time spent up to now is       11.1 secs

     total energy              =    -347.51654853 Ry
     estimated scf accuracy    <       0.09002141 Ry

     iteration #  5     ecut=   150.00 Ry     beta= 0.70
     Davidson diagonalization with overlap

---- Real-time Memory Report at c_bands before calling an iterative solver
           146 MiB given to the printing process from OS
             0 MiB allocation reported by mallinfo(arena+hblkhd)
        191047 MiB available memory on the node where the printing process lives
------------------
     ethr =  7.84E-05,  avg # of iterations =  2.5

     negative rho (up, down):  8.228E-08 0.000E+00

     total cpu time spent up to now is       13.0 secs

     total energy              =    -347.52215819 Ry
     estimated scf accuracy    <       0.01831079 Ry

     iteration #  6     ecut=   150.00 Ry     beta= 0.70
     Davidson diagonalization with overlap

---- Real-time Memory Report at c_bands before calling an iterative solver
           146 MiB given to the printing process from OS
             0 MiB allocation reported by mallinfo(arena+hblkhd)
        191045 MiB available memory on the node where the printing process lives
------------------
     ethr =  5.09E-05,  avg # of iterations =  1.0

     negative rho (up, down):  3.665E-08 0.000E+00

     total cpu time spent up to now is       14.6 secs

     total energy              =    -347.52184272 Ry
     estimated scf accuracy    <       0.01553303 Ry

     iteration #  7     ecut=   150.00 Ry     beta= 0.70
     Davidson diagonalization with overlap

---- Real-time Memory Report at c_bands before calling an iterative solver
           149 MiB given to the printing process from OS
             0 MiB allocation reported by mallinfo(arena+hblkhd)
        191040 MiB available memory on the node where the printing process lives
------------------
     ethr =  4.31E-05,  avg # of iterations =  1.0

     total cpu time spent up to now is       16.1 secs

     total energy              =    -347.52122781 Ry
     estimated scf accuracy    <       0.01356322 Ry

     iteration #  8     ecut=   150.00 Ry     beta= 0.70
     Davidson diagonalization with overlap

---- Real-time Memory Report at c_bands before calling an iterative solver
           149 MiB given to the printing process from OS
             0 MiB allocation reported by mallinfo(arena+hblkhd)
        191039 MiB available memory on the node where the printing process lives
------------------
     ethr =  3.77E-05,  avg # of iterations =  1.0

     total cpu time spent up to now is       17.7 secs

     total energy              =    -347.51774732 Ry
     estimated scf accuracy    <       0.01079414 Ry

     iteration #  9     ecut=   150.00 Ry     beta= 0.70
     Davidson diagonalization with overlap

---- Real-time Memory Report at c_bands before calling an iterative solver
           149 MiB given to the printing process from OS
             0 MiB allocation reported by mallinfo(arena+hblkhd)
        191036 MiB available memory on the node where the printing process lives
------------------
     ethr =  3.00E-05,  avg # of iterations =  2.0

     total cpu time spent up to now is       19.5 secs

     total energy              =    -347.51902215 Ry
     estimated scf accuracy    <       0.00142847 Ry

     iteration # 10     ecut=   150.00 Ry     beta= 0.70
     Davidson diagonalization with overlap

---- Real-time Memory Report at c_bands before calling an iterative solver
           149 MiB given to the printing process from OS
             0 MiB allocation reported by mallinfo(arena+hblkhd)
        191032 MiB available memory on the node where the printing process lives
------------------
     ethr =  3.97E-06,  avg # of iterations =  2.0

     total cpu time spent up to now is       21.2 secs

     total energy              =    -347.51891417 Ry
     estimated scf accuracy    <       0.00144848 Ry

     iteration # 11     ecut=   150.00 Ry     beta= 0.70
     Davidson diagonalization with overlap

---- Real-time Memory Report at c_bands before calling an iterative solver
           149 MiB given to the printing process from OS
             0 MiB allocation reported by mallinfo(arena+hblkhd)
        191033 MiB available memory on the node where the printing process lives
------------------
     ethr =  3.97E-06,  avg # of iterations =  1.1

     total cpu time spent up to now is       22.7 secs

     total energy              =    -347.51875749 Ry
     estimated scf accuracy    <       0.00099773 Ry

     iteration # 12     ecut=   150.00 Ry     beta= 0.70
     Davidson diagonalization with overlap

---- Real-time Memory Report at c_bands before calling an iterative solver
           149 MiB given to the printing process from OS
             0 MiB allocation reported by mallinfo(arena+hblkhd)
        191033 MiB available memory on the node where the printing process lives
------------------
     ethr =  2.77E-06,  avg # of iterations =  1.8

     total cpu time spent up to now is       24.4 secs

     total energy              =    -347.51879668 Ry
     estimated scf accuracy    <       0.00048714 Ry

     iteration # 13     ecut=   150.00 Ry     beta= 0.70
     Davidson diagonalization with overlap

---- Real-time Memory Report at c_bands before calling an iterative solver
           149 MiB given to the printing process from OS
             0 MiB allocation reported by mallinfo(arena+hblkhd)
        191033 MiB available memory on the node where the printing process lives
------------------
     ethr =  1.35E-06,  avg # of iterations =  1.5

     total cpu time spent up to now is       26.0 secs

     total energy              =    -347.51890946 Ry
     estimated scf accuracy    <       0.00043603 Ry

     iteration # 14     ecut=   150.00 Ry     beta= 0.70
     Davidson diagonalization with overlap

---- Real-time Memory Report at c_bands before calling an iterative solver
           149 MiB given to the printing process from OS
             0 MiB allocation reported by mallinfo(arena+hblkhd)
        191033 MiB available memory on the node where the printing process lives
------------------
     ethr =  1.21E-06,  avg # of iterations =  1.0

     total cpu time spent up to now is       27.6 secs

     total energy              =    -347.51854352 Ry
     estimated scf accuracy    <       0.00064751 Ry

     iteration # 15     ecut=   150.00 Ry     beta= 0.70
     Davidson diagonalization with overlap

---- Real-time Memory Report at c_bands before calling an iterative solver
           149 MiB given to the printing process from OS
             0 MiB allocation reported by mallinfo(arena+hblkhd)
        191031 MiB available memory on the node where the printing process lives
------------------
     ethr =  1.21E-06,  avg # of iterations =  3.9

     total cpu time spent up to now is       29.8 secs

     total energy              =    -347.51871654 Ry
     estimated scf accuracy    <       0.00001469 Ry

     iteration # 16     ecut=   150.00 Ry     beta= 0.70
     Davidson diagonalization with overlap

---- Real-time Memory Report at c_bands before calling an iterative solver
           149 MiB given to the printing process from OS
             0 MiB allocation reported by mallinfo(arena+hblkhd)
        191031 MiB available memory on the node where the printing process lives
------------------
     ethr =  4.08E-08,  avg # of iterations =  3.6

     total cpu time spent up to now is       32.1 secs

     total energy              =    -347.51872888 Ry
     estimated scf accuracy    <       0.00003556 Ry

     iteration # 17     ecut=   150.00 Ry     beta= 0.70
     Davidson diagonalization with overlap

---- Real-time Memory Report at c_bands before calling an iterative solver
           149 MiB given to the printing process from OS
             0 MiB allocation reported by mallinfo(arena+hblkhd)
        191031 MiB available memory on the node where the printing process lives
------------------
     ethr =  4.08E-08,  avg # of iterations =  2.0

     total cpu time spent up to now is       33.9 secs

     total energy              =    -347.51871232 Ry
     estimated scf accuracy    <       0.00006701 Ry

     iteration # 18     ecut=   150.00 Ry     beta= 0.70
     Davidson diagonalization with overlap

---- Real-time Memory Report at c_bands before calling an iterative solver
           149 MiB given to the printing process from OS
             0 MiB allocation reported by mallinfo(arena+hblkhd)
        191031 MiB available memory on the node where the printing process lives
------------------
     ethr =  4.08E-08,  avg # of iterations =  2.0

     total cpu time spent up to now is       35.8 secs

     total energy              =    -347.51871469 Ry
     estimated scf accuracy    <       0.00002175 Ry

     iteration # 19     ecut=   150.00 Ry     beta= 0.70
     Davidson diagonalization with overlap

---- Real-time Memory Report at c_bands before calling an iterative solver
           149 MiB given to the printing process from OS
             0 MiB allocation reported by mallinfo(arena+hblkhd)
        191027 MiB available memory on the node where the printing process lives
------------------
     ethr =  4.08E-08,  avg # of iterations =  1.0

     total cpu time spent up to now is       37.4 secs

     total energy              =    -347.51871761 Ry
     estimated scf accuracy    <       0.00001956 Ry

     iteration # 20     ecut=   150.00 Ry     beta= 0.70
     Davidson diagonalization with overlap

---- Real-time Memory Report at c_bands before calling an iterative solver
           149 MiB given to the printing process from OS
             0 MiB allocation reported by mallinfo(arena+hblkhd)
        191027 MiB available memory on the node where the printing process lives
------------------
     ethr =  4.08E-08,  avg # of iterations =  1.0

     total cpu time spent up to now is       38.9 secs

     total energy              =    -347.51871200 Ry
     estimated scf accuracy    <       0.00002615 Ry

     iteration # 21     ecut=   150.00 Ry     beta= 0.70
     Davidson diagonalization with overlap

---- Real-time Memory Report at c_bands before calling an iterative solver
           149 MiB given to the printing process from OS
             0 MiB allocation reported by mallinfo(arena+hblkhd)
        191027 MiB available memory on the node where the printing process lives
------------------
     ethr =  4.08E-08,  avg # of iterations =  1.1

     total cpu time spent up to now is       40.5 secs

     total energy              =    -347.51870766 Ry
     estimated scf accuracy    <       0.00001252 Ry

     iteration # 22     ecut=   150.00 Ry     beta= 0.70
     Davidson diagonalization with overlap

---- Real-time Memory Report at c_bands before calling an iterative solver
           149 MiB given to the printing process from OS
             0 MiB allocation reported by mallinfo(arena+hblkhd)
        191022 MiB available memory on the node where the printing process lives
------------------
     ethr =  3.48E-08,  avg # of iterations =  2.3

     total cpu time spent up to now is       42.4 secs

     total energy              =    -347.51870955 Ry
     estimated scf accuracy    <       0.00000045 Ry

     iteration # 23     ecut=   150.00 Ry     beta= 0.70
     Davidson diagonalization with overlap

---- Real-time Memory Report at c_bands before calling an iterative solver
           149 MiB given to the printing process from OS
             0 MiB allocation reported by mallinfo(arena+hblkhd)
        191019 MiB available memory on the node where the printing process lives
------------------
     ethr =  1.26E-09,  avg # of iterations =  3.7

     total cpu time spent up to now is       44.7 secs

     total energy              =    -347.51870982 Ry
     estimated scf accuracy    <       0.00000008 Ry

     iteration # 24     ecut=   150.00 Ry     beta= 0.70
     Davidson diagonalization with overlap

---- Real-time Memory Report at c_bands before calling an iterative solver
           149 MiB given to the printing process from OS
             0 MiB allocation reported by mallinfo(arena+hblkhd)
        191023 MiB available memory on the node where the printing process lives
------------------
     ethr =  2.28E-10,  avg # of iterations =  2.0

     total cpu time spent up to now is       46.5 secs

     End of self-consistent calculation

          k = 0.0000 0.0000 0.0000 (  9597 PWs)   bands (ev):

    -5.3220  -4.4642  -2.9433  -2.9334  -2.9334  -2.8753  -2.8753  -2.6915
    -2.6915  -2.5939  -2.5939  -1.2927   3.5975   9.5876   9.5876  10.5853
    10.6175  10.6175

     occupation numbers 
     1.0000   1.0000   1.0000   1.0000   1.0000   1.0000   1.0000   1.0000
     1.0000   1.0000   1.0000   1.0000   1.0000   1.0000   1.0000   1.0000
     1.0000   1.0000

          k = 0.0000 0.0000 0.0615 (  9567 PWs)   bands (ev):

    -5.2930  -4.4734  -2.9352  -2.9330  -2.9330  -2.8776  -2.8776  -2.6882
    -2.6882  -2.5954  -2.5954  -1.4019   3.7856   9.6116   9.6116  10.2441
    10.5911  10.5911

     occupation numbers 
     1.0000   1.0000   1.0000   1.0000   1.0000   1.0000   1.0000   1.0000
     1.0000   1.0000   1.0000   1.0000   1.0000   1.0000   1.0000   1.0000
     1.0000   1.0000

          k = 0.0000 0.0000 0.1229 (  9632 PWs)   bands (ev):

    -5.2094  -4.5033  -2.9315  -2.9315  -2.9072  -2.8841  -2.8841  -2.6788
    -2.6788  -2.6002  -2.6002  -1.6759   4.2961   9.5154   9.6815   9.6815
    10.5148  10.5148

     occupation numbers 
     1.0000   1.0000   1.0000   1.0000   1.0000   1.0000   1.0000   1.0000
     1.0000   1.0000   1.0000   1.0000   1.0000   1.0000   1.0000   1.0000
     1.0000   1.0000

          k = 0.0000 0.0000 0.1844 (  9608 PWs)   bands (ev):

    -5.0825  -4.5606  -2.9281  -2.9281  -2.8935  -2.8935  -2.8492  -2.6652
    -2.6652  -2.6082  -2.6082  -2.0114   5.0232   8.6516   9.7914   9.7914
    10.3969  10.3969

     occupation numbers 
     1.0000   1.0000   1.0000   1.0000   1.0000   1.0000   1.0000   1.0000
     1.0000   1.0000   1.0000   1.0000   1.0000   1.0000   1.0000   1.0000
     1.0000   1.0000

          k = 0.0000 0.0000 0.2459 (  9566 PWs)   bands (ev):

    -4.9312  -4.6527  -2.9223  -2.9223  -2.9041  -2.9041  -2.7444  -2.6494
    -2.6494  -2.6196  -2.6196  -2.3256   5.8770   7.7318   9.9318   9.9318
    10.2501  10.2501

     occupation numbers 
     1.0000   1.0000   1.0000   1.0000   1.0000   1.0000   1.0000   1.0000
     1.0000   1.0000   1.0000   1.0000   1.0000   1.0000   1.0000   1.0000
     1.0000   1.0000

          k = 0.0000 0.0000-0.3073 (  9542 PWs)   bands (ev):

    -4.7802  -4.7802  -2.9141  -2.9141  -2.9141  -2.9141  -2.6337  -2.6337
    -2.6337  -2.6337  -2.5736  -2.5736   6.7948   6.7948  10.0897  10.0897
    10.0897  10.0897

     occupation numbers 
     1.0000   1.0000   1.0000   1.0000   1.0000   1.0000   1.0000   1.0000
     1.0000   1.0000   1.0000   1.0000   1.0000   1.0000   1.0000   1.0000
     1.0000   1.0000

          k = 0.0000 0.1155 0.0000 (  9609 PWs)   bands (ev):

    -5.2268  -4.4414  -2.9339  -2.9194  -2.8995  -2.8635  -2.8562  -2.6994
    -2.6925  -2.6096  -2.5918  -1.2228   3.7393   8.8739   9.3834   9.7890
    10.4872  10.5289

     occupation numbers 
     1.0000   1.0000   1.0000   1.0000   1.0000   1.0000   1.0000   1.0000
     1.0000   1.0000   1.0000   1.0000   1.0000   1.0000   1.0000   1.0000
     1.0000   1.0000

          k = 0.0000 0.1155 0.0615 (  9591 PWs)   bands (ev):

    -5.1992  -4.4492  -2.9313  -2.9187  -2.8943  -2.8655  -2.8586  -2.6947
    -2.6892  -2.6118  -2.5935  -1.3286   3.9194   8.9029   9.4095   9.6129
    10.4156  10.4987

     occupation numbers 
     1.0000   1.0000   1.0000   1.0000   1.0000   1.0000   1.0000   1.0000
     1.0000   1.0000   1.0000   1.0000   1.0000   1.0000   1.0000   1.0000
     1.0000   1.0000

          k = 0.0000 0.1155 0.1229 (  9580 PWs)   bands (ev):

    -5.1199  -4.4750  -2.9256  -2.9166  -2.8791  -2.8652  -2.8651  -2.6806
    -2.6799  -2.6185  -2.5987  -1.5956   4.4081   8.9584   9.1589   9.4858
    10.2547  10.4118

     occupation numbers 
     1.0000   1.0000   1.0000   1.0000   1.0000   1.0000   1.0000   1.0000
     1.0000   1.0000   1.0000   1.0000   1.0000   1.0000   1.0000   1.0000
     1.0000   1.0000

          k = 0.0000 0.1155 0.1844 (  9569 PWs)   bands (ev):

    -5.0005  -4.5251  -2.9194  -2.9125  -2.8836  -2.8749  -2.8211  -2.6663
    -2.6569  -2.6291  -2.6075  -1.9249   5.1025   8.4118   9.1629   9.6060
    10.0490  10.2784

     occupation numbers 
     1.0000   1.0000   1.0000   1.0000   1.0000   1.0000   1.0000   1.0000
     1.0000   1.0000   1.0000   1.0000   1.0000   1.0000   1.0000   1.0000
     1.0000   1.0000

          k = 0.0000 0.1155 0.2459 (  9578 PWs)   bands (ev):

    -4.8597  -4.6066  -2.9124  -2.9058  -2.8936  -2.8860  -2.7462  -2.6529
    -2.6504  -2.6196  -2.6011  -2.2340   5.9115   7.6177   9.3513   9.7602
     9.8160  10.1135

     occupation numbers 
     1.0000   1.0000   1.0000   1.0000   1.0000   1.0000   1.0000   1.0000
     1.0000   1.0000   1.0000   1.0000   1.0000   1.0000   1.0000   1.0000
     1.0000   1.0000

          k = 0.0000 0.1155-0.3073 (  9578 PWs)   bands (ev):

    -4.7214  -4.7214  -2.9037  -2.9037  -2.8967  -2.8967  -2.6840  -2.6840
    -2.6342  -2.6342  -2.4704  -2.4704   6.7675   6.7675   9.5761   9.5761
     9.9348   9.9348

     occupation numbers 
     1.0000   1.0000   1.0000   1.0000   1.0000   1.0000   1.0000   1.0000
     1.0000   1.0000   1.0000   1.0000   1.0000   1.0000   1.0000   1.0000
     1.0000   1.0000

          k = 0.0000 0.2309 0.0000 (  9592 PWs)   bands (ev):

    -4.9827  -4.3908  -2.9040  -2.8886  -2.8362  -2.8061  -2.7693  -2.7189
    -2.6872  -2.6338  -2.5869  -1.0332   4.1391   7.3939   8.4404   8.9085
    10.1697  10.2810

     occupation numbers 
     1.0000   1.0000   1.0000   1.0000   1.0000   1.0000   1.0000   1.0000
     1.0000   1.0000   1.0000   1.0000   1.0000   1.0000   1.0000   1.0000
     1.0000   1.0000

          k = 0.0000 0.2309 0.0615 (  9578 PWs)   bands (ev):

    -4.9595  -4.3955  -2.9037  -2.8871  -2.8398  -2.8086  -2.7679  -2.7077
    -2.6844  -2.6326  -2.5891  -1.1283   4.2879   7.4396   8.3334   8.9386
    10.1288  10.2432

     occupation numbers 
     1.0000   1.0000   1.0000   1.0000   1.0000   1.0000   1.0000   1.0000
     1.0000   1.0000   1.0000   1.0000   1.0000   1.0000   1.0000   1.0000
     1.0000   1.0000

          k = 0.0000 0.2309 0.1229 (  9575 PWs)   bands (ev):

    -4.8938  -4.4117  -2.9017  -2.8827  -2.8479  -2.8157  -2.7630  -2.6866
    -2.6763  -2.6170  -2.5953  -1.3734   4.6889   7.5544   8.0738   9.0270
     9.9727  10.1348

     occupation numbers 
     1.0000   1.0000   1.0000   1.0000   1.0000   1.0000   1.0000   1.0000
     1.0000   1.0000   1.0000   1.0000   1.0000   1.0000   1.0000   1.0000
     1.0000   1.0000

          k = 0.0000 0.2309 0.1844 (  9569 PWs)   bands (ev):

    -4.7969  -4.4444  -2.8966  -2.8752  -2.8573  -2.8265  -2.7528  -2.6847
    -2.6641  -2.6053  -2.5539  -1.6858   5.2447   7.4674   8.0012   9.1670
     9.6653   9.9702

     occupation numbers 
     1.0000   1.0000   1.0000   1.0000   1.0000   1.0000   1.0000   1.0000
     1.0000   1.0000   1.0000   1.0000   1.0000   1.0000   1.0000   1.0000
     1.0000   1.0000

          k = 0.0000 0.2309 0.2459 (  9567 PWs)   bands (ev):

    -4.6866  -4.5003  -2.8882  -2.8675  -2.8650  -2.8393  -2.7367  -2.6981
    -2.6492  -2.6183  -2.4333  -1.9923   5.8599   7.0175   8.3166   9.2348
     9.3479   9.7695

     occupation numbers 
     1.0000   1.0000   1.0000   1.0000   1.0000   1.0000   1.0000   1.0000
     1.0000   1.0000   1.0000   1.0000   1.0000   1.0000   1.0000   1.0000
     1.0000   1.0000

          k = 0.0000 0.2309-0.3073 (  9576 PWs)   bands (ev):

    -4.5827  -4.5827  -2.8780  -2.8780  -2.8527  -2.8527  -2.7171  -2.7171
    -2.6334  -2.6334  -2.2473  -2.2473   6.4647   6.4647   8.7572   8.7572
     9.5550   9.5550

     occupation numbers 
     1.0000   1.0000   1.0000   1.0000   1.0000   1.0000   1.0000   1.0000
     1.0000   1.0000   1.0000   1.0000   1.0000   1.0000   1.0000   1.0000
     1.0000   1.0000

          k = 0.0000 0.3464 0.0000 (  9578 PWs)   bands (ev):

    -4.7092  -4.3458  -2.8831  -2.8663  -2.7913  -2.7451  -2.7294  -2.6913
    -2.6607  -2.5809  -2.4078  -0.7980   4.6366   6.0165   7.1123   8.3978
     9.6064   9.9690

     occupation numbers 
     1.0000   1.0000   1.0000   1.0000   1.0000   1.0000   1.0000   1.0000
     1.0000   1.0000   1.0000   1.0000   1.0000   1.0000   1.0000   1.0000
     1.0000   1.0000

          k = 0.0000 0.3464 0.0615 (  9565 PWs)   bands (ev):

    -4.6929  -4.3475  -2.8844  -2.8633  -2.7980  -2.7478  -2.7270  -2.6902
    -2.6591  -2.5833  -2.3892  -0.8723   4.6792   6.1264   7.0303   8.4315
     9.6297   9.9242

     occupation numbers 
     1.0000   1.0000   1.0000   1.0000   1.0000   1.0000   1.0000   1.0000
     1.0000   1.0000   1.0000   1.0000   1.0000   1.0000   1.0000   1.0000
     1.0000   1.0000

          k = 0.0000 0.3464 0.1229 (  9571 PWs)   bands (ev):

    -4.6473  -4.3541  -2.8869  -2.8545  -2.8135  -2.7558  -2.7225  -2.6889
    -2.6545  -2.5901  -2.3313  -1.0708   4.8006   6.3319   6.9308   8.5303
     9.6280   9.7964

     occupation numbers 
     1.0000   1.0000   1.0000   1.0000   1.0000   1.0000   1.0000   1.0000
     1.0000   1.0000   1.0000   1.0000   1.0000   1.0000   1.0000   1.0000
     1.0000   1.0000

          k = 0.0000 0.3464 0.1844 (  9577 PWs)   bands (ev):

    -4.5821  -4.3698  -2.8870  -2.8407  -2.8324  -2.7686  -2.7173  -2.6905
    -2.6469  -2.6002  -2.2292  -1.3381   4.9906   6.1999   7.2685   8.6874
     9.4691   9.6041

     occupation numbers 
     1.0000   1.0000   1.0000   1.0000   1.0000   1.0000   1.0000   1.0000
     1.0000   1.0000   1.0000   1.0000   1.0000   1.0000   1.0000   1.0000
     1.0000   1.0000

          k = 0.0000 0.3464 0.2459 (  9574 PWs)   bands (ev):

    -4.5109  -4.3996  -2.8816  -2.8520  -2.8234  -2.7853  -2.7108  -2.6957
    -2.6367  -2.6122  -2.0770  -1.6183   5.2406   5.8755   7.8790   8.8914
     9.0881   9.3720

     occupation numbers 
     1.0000   1.0000   1.0000   1.0000   1.0000   1.0000   1.0000   1.0000
     1.0000   1.0000   1.0000   1.0000   1.0000   1.0000   1.0000   1.0000
     1.0000   1.0000

          k = 0.0000 0.3464-0.3073 (  9564 PWs)   bands (ev):

    -4.4472  -4.4472  -2.8694  -2.8694  -2.8042  -2.8042  -2.7031  -2.7031
    -2.6248  -2.6248  -1.8716  -1.8716   5.5413   5.5413   8.5256   8.5256
     9.1264   9.1264

     occupation numbers 
     1.0000   1.0000   1.0000   1.0000   1.0000   1.0000   1.0000   1.0000
     1.0000   1.0000   1.0000   1.0000   1.0000   1.0000   1.0000   1.0000
     1.0000   1.0000

          k = 0.0000 0.4619 0.0000 (  9564 PWs)   bands (ev):

    -4.5302  -4.3222  -2.8820  -2.8608  -2.7715  -2.7263  -2.6989  -2.6830
    -2.6227  -2.5740  -1.8511  -0.7081   4.4530   5.6406   6.2653   8.0255
     8.8770   9.7210

     occupation numbers 
     1.0000   1.0000   1.0000   1.0000   1.0000   1.0000   1.0000   1.0000
     1.0000   1.0000   1.0000   1.0000   1.0000   1.0000   1.0000   1.0000
     1.0000   1.0000

          k = 0.0000 0.4619 0.0615 (  9585 PWs)   bands (ev):

    -4.5196  -4.3221  -2.8845  -2.8566  -2.7728  -2.7390  -2.7019  -2.6700
    -2.6222  -2.5764  -1.8346  -0.7491   4.3817   5.6162   6.3837   8.0614
     8.9647   9.6717

     occupation numbers 
     1.0000   1.0000   1.0000   1.0000   1.0000   1.0000   1.0000   1.0000
     1.0000   1.0000   1.0000   1.0000   1.0000   1.0000   1.0000   1.0000
     1.0000   1.0000

          k = 0.0000 0.4619 0.1229 (  9582 PWs)   bands (ev):

    -4.4903  -4.3228  -2.8900  -2.8442  -2.7949  -2.7362  -2.7111  -2.6544
    -2.6206  -2.5828  -1.7840  -0.8644   4.2720   5.4126   6.8087   8.1668
     9.1397   9.5318

     occupation numbers 
     1.0000   1.0000   1.0000   1.0000   1.0000   1.0000   1.0000   1.0000
     1.0000   1.0000   1.0000   1.0000   1.0000   1.0000   1.0000   1.0000
     1.0000   1.0000

          k = 0.0000 0.4619 0.1844 (  9563 PWs)   bands (ev):

    -4.4492  -4.3281  -2.8941  -2.8283  -2.8249  -2.7269  -2.7163  -2.6487
    -2.6178  -2.5913  -1.6967  -1.0322   4.2396   5.0950   7.4180   8.3345
     9.2218   9.3220

     occupation numbers 
     1.0000   1.0000   1.0000   1.0000   1.0000   1.0000   1.0000   1.0000
     1.0000   1.0000   1.0000   1.0000   1.0000   1.0000   1.0000   1.0000
     1.0000   1.0000

          k = 0.0000 0.4619 0.2459 (  9587 PWs)   bands (ev):

    -4.4055  -4.3421  -2.8919  -2.8585  -2.8007  -2.7486  -2.6923  -2.6545
    -2.6134  -2.5999  -1.5710  -1.2233   4.3182   4.7728   8.0701   8.5529
     9.0679   9.0703

     occupation numbers 
     1.0000   1.0000   1.0000   1.0000   1.0000   1.0000   1.0000   1.0000
     1.0000   1.0000   1.0000   1.0000   1.0000   1.0000   1.0000   1.0000
     1.0000   1.0000

          k = 0.0000 0.4619-0.3073 (  9574 PWs)   bands (ev):

    -4.3681  -4.3681  -2.8803  -2.8803  -2.7742  -2.7742  -2.6702  -2.6702
    -2.6074  -2.6074  -1.4097  -1.4097   4.5029   4.5029   8.6565   8.6565
     8.8053   8.8053

     occupation numbers 
     1.0000   1.0000   1.0000   1.0000   1.0000   1.0000   1.0000   1.0000
     1.0000   1.0000   1.0000   1.0000   1.0000   1.0000   1.0000   1.0000
     1.0000   1.0000

          k = 0.0000-0.5774 0.0000 (  9552 PWs)   bands (ev):

    -4.4742  -4.3160  -2.8857  -2.8610  -2.7647  -2.7299  -2.6828  -2.6707
    -2.6047  -2.5703  -1.4081  -0.8532   4.1904   5.3523   6.4409   7.8907
     8.4343   9.6279

     occupation numbers 
     1.0000   1.0000   1.0000   1.0000   1.0000   1.0000   1.0000   1.0000
     1.0000   1.0000   1.0000   1.0000   1.0000   1.0000   1.0000   1.0000
     1.0000   1.0000

          k = 0.0000-0.5774 0.0615 (  9576 PWs)   bands (ev):

    -4.4656  -4.3152  -2.8884  -2.8563  -2.7577  -2.7515  -2.6860  -2.6566
    -2.6045  -2.5727  -1.3990  -0.8693   4.1198   5.2321   6.6198   7.9273
     8.5560   9.5771

     occupation numbers 
     1.0000   1.0000   1.0000   1.0000   1.0000   1.0000   1.0000   1.0000
     1.0000   1.0000   1.0000   1.0000   1.0000   1.0000   1.0000   1.0000
     1.0000   1.0000

          k = 0.0000-0.5774 0.1229 (  9560 PWs)   bands (ev):

    -4.4419  -4.3141  -2.8945  -2.8427  -2.7907  -2.7387  -2.6959  -2.6389
    -2.6039  -2.5788  -1.3711  -0.9163   3.9846   4.9412   7.0707   8.0349
     8.8236   9.4330

     occupation numbers 
     1.0000   1.0000   1.0000   1.0000   1.0000   1.0000   1.0000   1.0000
     1.0000   1.0000   1.0000   1.0000   1.0000   1.0000   1.0000   1.0000
     1.0000   1.0000

          k = 0.0000-0.5774 0.1844 (  9594 PWs)   bands (ev):

    -4.4088  -4.3160  -2.8992  -2.8303  -2.8216  -2.7132  -2.7120  -2.6319
    -2.6027  -2.5862  -1.3235  -0.9895   3.8967   4.5973   7.6512   8.2062
     9.0397   9.2175

     occupation numbers 
     1.0000   1.0000   1.0000   1.0000   1.0000   1.0000   1.0000   1.0000
     1.0000   1.0000   1.0000   1.0000   1.0000   1.0000   1.0000   1.0000
     1.0000   1.0000

          k = 0.0000-0.5774 0.2459 (  9594 PWs)   bands (ev):

    -4.3739  -4.3252  -2.8978  -2.8636  -2.7949  -2.7373  -2.6826  -2.6380
    -2.6007  -2.5927  -1.2562  -1.0792   3.9125   4.2826   8.2453   8.4295
     8.9592   9.0320

     occupation numbers 
     1.0000   1.0000   1.0000   1.0000   1.0000   1.0000   1.0000   1.0000
     1.0000   1.0000   1.0000   1.0000   1.0000   1.0000   1.0000   1.0000
     1.0000   1.0000

          k = 0.0000-0.5774-0.3073 (  9600 PWs)   bands (ev):

    -4.3446  -4.3446  -2.8865  -2.8865  -2.7656  -2.7656  -2.6562  -2.6562
    -2.5975  -2.5975  -1.1722  -1.1722   4.0450   4.0450   8.6877   8.6877
     8.7437   8.7437

     occupation numbers 
     1.0000   1.0000   1.0000   1.0000   1.0000   1.0000   1.0000   1.0000
     1.0000   1.0000   1.0000   1.0000   1.0000   1.0000   1.0000   1.0000
     1.0000   1.0000

          k = 0.1000 0.1732 0.0000 (  9573 PWs)   bands (ev):

    -5.0569  -4.4050  -2.9098  -2.8990  -2.8448  -2.8446  -2.7943  -2.7113
    -2.6919  -2.6327  -2.5870  -1.0924   4.0112   7.9489   8.5223   9.2334
    10.2656  10.2848

     occupation numbers 
     1.0000   1.0000   1.0000   1.0000   1.0000   1.0000   1.0000   1.0000
     1.0000   1.0000   1.0000   1.0000   1.0000   1.0000   1.0000   1.0000
     1.0000   1.0000

          k = 0.1000 0.1732 0.0615 (  9574 PWs)   bands (ev):

    -5.0322  -4.4106  -2.9091  -2.8977  -2.8469  -2.8443  -2.7933  -2.7014
    -2.6895  -2.6353  -2.5885  -1.1911   4.1720   7.9928   8.4683   9.1854
    10.2289  10.2404

     occupation numbers 
     1.0000   1.0000   1.0000   1.0000   1.0000   1.0000   1.0000   1.0000
     1.0000   1.0000   1.0000   1.0000   1.0000   1.0000   1.0000   1.0000
     1.0000   1.0000

          k = 0.1000 0.1732 0.1229 (  9569 PWs)   bands (ev):

    -4.9619  -4.4296  -2.9063  -2.8940  -2.8530  -2.8445  -2.7871  -2.6832
    -2.6713  -2.6425  -2.5919  -1.4440   4.6078   8.1240   8.2467   9.1422
    10.0843  10.1242

     occupation numbers 
     1.0000   1.0000   1.0000   1.0000   1.0000   1.0000   1.0000   1.0000
     1.0000   1.0000   1.0000   1.0000   1.0000   1.0000   1.0000   1.0000
     1.0000   1.0000

          k = 0.1000 0.1732 0.1844 (  9584 PWs)   bands (ev):

    -4.8576  -4.4673  -2.9009  -2.8877  -2.8619  -2.8484  -2.7700  -2.6786
    -2.6501  -2.6273  -2.5835  -1.7625   5.2195   7.8248   8.3405   9.1980
     9.8084   9.9660

     occupation numbers 
     1.0000   1.0000   1.0000   1.0000   1.0000   1.0000   1.0000   1.0000
     1.0000   1.0000   1.0000   1.0000   1.0000   1.0000   1.0000   1.0000
     1.0000   1.0000

          k = 0.1000 0.1732 0.2459 (  9580 PWs)   bands (ev):

    -4.7375  -4.5308  -2.8931  -2.8798  -2.8713  -2.8569  -2.7427  -2.6896
    -2.6458  -2.6228  -2.4922  -2.0700   5.9123   7.2630   8.6352   9.2650
     9.5144   9.7764

     occupation numbers 
     1.0000   1.0000   1.0000   1.0000   1.0000   1.0000   1.0000   1.0000
     1.0000   1.0000   1.0000   1.0000   1.0000   1.0000   1.0000   1.0000
     1.0000   1.0000

          k = 0.1000 0.1732-0.3073 (  9560 PWs)   bands (ev):

    -4.6229  -4.6229  -2.8839  -2.8839  -2.8672  -2.8672  -2.7136  -2.7136
    -2.6339  -2.6339  -2.3194  -2.3194   6.6117   6.6117   8.9864   8.9864
     9.5856   9.5856

     occupation numbers 
     1.0000   1.0000   1.0000   1.0000   1.0000   1.0000   1.0000   1.0000
     1.0000   1.0000   1.0000   1.0000   1.0000   1.0000   1.0000   1.0000
     1.0000   1.0000

          k = 0.1000 0.2887 0.0000 (  9577 PWs)   bands (ev):

    -4.7979  -4.3592  -2.8821  -2.8770  -2.8061  -2.7826  -2.7277  -2.6763
    -2.6690  -2.6126  -2.5238  -0.8720   4.4838   6.6611   7.4172   8.4743
     9.8572   9.8642

     occupation numbers 
     1.0000   1.0000   1.0000   1.0000   1.0000   1.0000   1.0000   1.0000
     1.0000   1.0000   1.0000   1.0000   1.0000   1.0000   1.0000   1.0000
     1.0000   1.0000

          k = 0.1000 0.2887 0.0615 (  9575 PWs)   bands (ev):

    -4.7791  -4.3619  -2.8799  -2.8773  -2.8108  -2.7864  -2.7225  -2.6832
    -2.6631  -2.6118  -2.5095  -0.9553   4.5852   6.7336   7.3599   8.4652
     9.7995   9.8817

     occupation numbers 
     1.0000   1.0000   1.0000   1.0000   1.0000   1.0000   1.0000   1.0000
     1.0000   1.0000   1.0000   1.0000   1.0000   1.0000   1.0000   1.0000
     1.0000   1.0000

          k = 0.1000 0.2887 0.1229 (  9573 PWs)   bands (ev):

    -4.7262  -4.3714  -2.8797  -2.8708  -2.8214  -2.7939  -2.7169  -2.6939
    -2.6546  -2.6116  -2.4604  -1.1746   4.8527   6.8848   7.2543   8.4867
     9.6592   9.8422

     occupation numbers 
     1.0000   1.0000   1.0000   1.0000   1.0000   1.0000   1.0000   1.0000
     1.0000   1.0000   1.0000   1.0000   1.0000   1.0000   1.0000   1.0000
     1.0000   1.0000

          k = 0.1000 0.2887 0.1844 (  9574 PWs)   bands (ev):

    -4.6499  -4.3922  -2.8779  -2.8590  -2.8331  -2.8033  -2.7180  -2.7050
    -2.6456  -2.6143  -2.3667  -1.4632   5.2100   6.7279   7.5084   8.5868
     9.4443   9.6518

     occupation numbers 
     1.0000   1.0000   1.0000   1.0000   1.0000   1.0000   1.0000   1.0000
     1.0000   1.0000   1.0000   1.0000   1.0000   1.0000   1.0000   1.0000
     1.0000   1.0000

          k = 0.1000 0.2887 0.2459 (  9570 PWs)   bands (ev):

    -4.5654  -4.4301  -2.8709  -2.8491  -2.8408  -2.8147  -2.7213  -2.7147
    -2.6364  -2.6199  -2.2209  -1.7582   5.5980   6.3779   8.0195   8.7446
     9.1473   9.3309

     occupation numbers 
     1.0000   1.0000   1.0000   1.0000   1.0000   1.0000   1.0000   1.0000
     1.0000   1.0000   1.0000   1.0000   1.0000   1.0000   1.0000   1.0000
     1.0000   1.0000

          k = 0.1000 0.2887-0.3073 (  9566 PWs)   bands (ev):

    -4.4886  -4.4886  -2.8597  -2.8597  -2.8280  -2.8280  -2.7208  -2.7208
    -2.6276  -2.6276  -2.0173  -2.0173   5.9914   5.9914   8.5739   8.5739
     9.0574   9.0574

     occupation numbers 
     1.0000   1.0000   1.0000   1.0000   1.0000   1.0000   1.0000   1.0000
     1.0000   1.0000   1.0000   1.0000   1.0000   1.0000   1.0000   1.0000
     1.0000   1.0000

          k = 0.1000 0.4041 0.0000 (  9575 PWs)   bands (ev):

    -4.5780  -4.3289  -2.8839  -2.8577  -2.7657  -2.7337  -2.7230  -2.6863
    -2.6396  -2.5883  -2.0809  -0.6846   4.7340   5.7849   6.5016   7.7947
     9.2147   9.4912

     occupation numbers 
     1.0000   1.0000   1.0000   1.0000   1.0000   1.0000   1.0000   1.0000
     1.0000   1.0000   1.0000   1.0000   1.0000   1.0000   1.0000   1.0000
     1.0000   1.0000

          k = 0.1000 0.4041 0.0615 (  9565 PWs)   bands (ev):

    -4.5657  -4.3292  -2.8808  -2.8591  -2.7749  -2.7315  -2.7244  -2.6843
    -2.6365  -2.5915  -2.0624  -0.7407   4.6838   5.8797   6.5119   7.8181
     9.2684   9.4485

     occupation numbers 
     1.0000   1.0000   1.0000   1.0000   1.0000   1.0000   1.0000   1.0000
     1.0000   1.0000   1.0000   1.0000   1.0000   1.0000   1.0000   1.0000
     1.0000   1.0000

          k = 0.1000 0.4041 0.1229 (  9571 PWs)   bands (ev):

    -4.5316  -4.3313  -2.8760  -2.8573  -2.7942  -2.7387  -2.7200  -2.6798
    -2.6304  -2.5988  -2.0053  -0.8946   4.6268   5.8453   6.7808   7.9088
     9.2270   9.4488

     occupation numbers 
     1.0000   1.0000   1.0000   1.0000   1.0000   1.0000   1.0000   1.0000
     1.0000   1.0000   1.0000   1.0000   1.0000   1.0000   1.0000   1.0000
     1.0000   1.0000

          k = 0.1000 0.4041 0.1844 (  9566 PWs)   bands (ev):

    -4.4835  -4.3389  -2.8764  -2.8441  -2.8153  -2.7514  -2.7145  -2.6785
    -2.6254  -2.6054  -1.9061  -1.1109   4.6538   5.5847   7.3241   8.0899
     8.9997   9.4470

     occupation numbers 
     1.0000   1.0000   1.0000   1.0000   1.0000   1.0000   1.0000   1.0000
     1.0000   1.0000   1.0000   1.0000   1.0000   1.0000   1.0000   1.0000
     1.0000   1.0000

          k = 0.1000 0.4041 0.2459 (  9567 PWs)   bands (ev):

    -4.4323  -4.3567  -2.8736  -2.8466  -2.8129  -2.7686  -2.7070  -2.6853
    -2.6203  -2.6097  -1.7614  -1.3482   4.7811   5.2766   7.8955   8.3728
     8.7215   9.2408

     occupation numbers 
     1.0000   1.0000   1.0000   1.0000   1.0000   1.0000   1.0000   1.0000
     1.0000   1.0000   1.0000   1.0000   1.0000   1.0000   1.0000   1.0000
     1.0000   1.0000

          k = 0.1000 0.4041-0.3073 (  9572 PWs)   bands (ev):

    -4.3880  -4.3880  -2.8632  -2.8632  -2.7903  -2.7903  -2.6966  -2.6966
    -2.6145  -2.6145  -1.5723  -1.5723   4.9965   4.9965   8.3307   8.3307
     8.8497   8.8497

     occupation numbers 
     1.0000   1.0000   1.0000   1.0000   1.0000   1.0000   1.0000   1.0000
     1.0000   1.0000   1.0000   1.0000   1.0000   1.0000   1.0000   1.0000
     1.0000   1.0000

          k = 0.1000 0.5196 0.0000 (  9573 PWs)   bands (ev):

    -4.4688  -4.3178  -2.8923  -2.8526  -2.7510  -2.7284  -2.6905  -2.6783
    -2.6169  -2.5812  -1.4959  -0.7458   4.3569   5.4815   6.4216   7.4931
     8.5268   9.2764

     occupation numbers 
     1.0000   1.0000   1.0000   1.0000   1.0000   1.0000   1.0000   1.0000
     1.0000   1.0000   1.0000   1.0000   1.0000   1.0000   1.0000   1.0000
     1.0000   1.0000

          k = 0.1000 0.5196 0.0615 (  9578 PWs)   bands (ev):

    -4.4602  -4.3168  -2.8892  -2.8538  -2.7537  -2.7386  -2.6956  -2.6642
    -2.6162  -2.5844  -1.4834  -0.7685   4.2862   5.3754   6.5789   7.5467
     8.6379   9.2213

     occupation numbers 
     1.0000   1.0000   1.0000   1.0000   1.0000   1.0000   1.0000   1.0000
     1.0000   1.0000   1.0000   1.0000   1.0000   1.0000   1.0000   1.0000
     1.0000   1.0000

          k = 0.1000 0.5196 0.1229 (  9579 PWs)   bands (ev):

    -4.4368  -4.3151  -2.8845  -2.8510  -2.7850  -2.7273  -2.7048  -2.6486
    -2.6142  -2.5921  -1.4453  -0.8342   4.1547   5.1053   6.9610   7.7225
     8.8383   9.1073

     occupation numbers 
     1.0000   1.0000   1.0000   1.0000   1.0000   1.0000   1.0000   1.0000
     1.0000   1.0000   1.0000   1.0000   1.0000   1.0000   1.0000   1.0000
     1.0000   1.0000

          k = 0.1000 0.5196 0.1844 (  9589 PWs)   bands (ev):

    -4.4042  -4.3160  -2.8846  -2.8351  -2.8190  -2.7222  -2.7062  -2.6437
    -2.6123  -2.5993  -1.3810  -0.9345   4.0748   4.7764   7.3871   8.0542
     8.7222   9.1850

     occupation numbers 
     1.0000   1.0000   1.0000   1.0000   1.0000   1.0000   1.0000   1.0000
     1.0000   1.0000   1.0000   1.0000   1.0000   1.0000   1.0000   1.0000
     1.0000   1.0000

          k = 0.1000 0.5196 0.2459 (  9583 PWs)   bands (ev):

    -4.3702  -4.3240  -2.8828  -2.8518  -2.8051  -2.7453  -2.6853  -2.6507
    -2.6103  -2.6033  -1.2909  -1.0552   4.0984   4.4701   7.7572   8.4040
     8.5364   9.1867

     occupation numbers 
     1.0000   1.0000   1.0000   1.0000   1.0000   1.0000   1.0000   1.0000
     1.0000   1.0000   1.0000   1.0000   1.0000   1.0000   1.0000   1.0000
     1.0000   1.0000

          k = 0.1000 0.5196-0.3073 (  9598 PWs)   bands (ev):

    -4.3420  -4.3420  -2.8725  -2.8725  -2.7745  -2.7745  -2.6658  -2.6658
    -2.6069  -2.6069  -1.1790  -1.1790   4.2346   4.2346   8.0955   8.0955
     8.9439   8.9439

     occupation numbers 
     1.0000   1.0000   1.0000   1.0000   1.0000   1.0000   1.0000   1.0000
     1.0000   1.0000   1.0000   1.0000   1.0000   1.0000   1.0000   1.0000
     1.0000   1.0000

          k = 0.2000 0.3464 0.0000 (  9570 PWs)   bands (ev):

    -4.5964  -4.3319  -2.8954  -2.8340  -2.7765  -2.7471  -2.7338  -2.6762
    -2.6458  -2.6049  -2.1509  -0.6785   4.8415   6.2806   6.2868   7.6183
     9.1817   9.3614

     occupation numbers 
     1.0000   1.0000   1.0000   1.0000   1.0000   1.0000   1.0000   1.0000
     1.0000   1.0000   1.0000   1.0000   1.0000   1.0000   1.0000   1.0000
     1.0000   1.0000

          k = 0.2000 0.3464 0.0615 (  9562 PWs)   bands (ev):

    -4.5833  -4.3322  -2.8910  -2.8377  -2.7792  -2.7606  -2.7168  -2.6852
    -2.6388  -2.6093  -2.1320  -0.7401   4.8299   6.2349   6.4557   7.5882
     9.1196   9.4244

     occupation numbers 
     1.0000   1.0000   1.0000   1.0000   1.0000   1.0000   1.0000   1.0000
     1.0000   1.0000   1.0000   1.0000   1.0000   1.0000   1.0000   1.0000
     1.0000   1.0000

          k = 0.2000 0.3464 0.1229 (  9560 PWs)   bands (ev):

    -4.5473  -4.3347  -2.8784  -2.8458  -2.7873  -2.7734  -2.7011  -2.6988
    -2.6279  -2.6187  -2.0736  -0.9079   4.8369   6.0875   6.8956   7.5684
     8.9469   9.5265

     occupation numbers 
     1.0000   1.0000   1.0000   1.0000   1.0000   1.0000   1.0000   1.0000
     1.0000   1.0000   1.0000   1.0000   1.0000   1.0000   1.0000   1.0000
     1.0000   1.0000

          k = 0.2000 0.3464 0.1844 (  9570 PWs)   bands (ev):

    -4.4965  -4.3431  -2.8597  -2.8518  -2.8002  -2.7828  -2.7147  -2.6958
    -2.6232  -2.6196  -1.9720  -1.1404   4.9128   5.8471   7.4885   7.6456
     8.6996   9.5081

     occupation numbers 
     1.0000   1.0000   1.0000   1.0000   1.0000   1.0000   1.0000   1.0000
     1.0000   1.0000   1.0000   1.0000   1.0000   1.0000   1.0000   1.0000
     1.0000   1.0000

          k = 0.2000 0.3464 0.2459 (  9567 PWs)   bands (ev):

    -4.4423  -4.3621  -2.8508  -2.8419  -2.8122  -2.7925  -2.7217  -2.7075
    -2.6195  -2.6153  -1.8231  -1.3921   5.0685   5.5646   7.8242   8.0906
     8.4613   9.2663

     occupation numbers 
     1.0000   1.0000   1.0000   1.0000   1.0000   1.0000   1.0000   1.0000
     1.0000   1.0000   1.0000   1.0000   1.0000   1.0000   1.0000   1.0000
     1.0000   1.0000

          k = 0.2000 0.3464-0.3073 (  9562 PWs)   bands (ev):

    -4.3954  -4.3954  -2.8430  -2.8430  -2.8056  -2.8056  -2.7192  -2.7192
    -2.6154  -2.6154  -1.6269  -1.6269   5.2932   5.2932   8.0640   8.0640
     8.8107   8.8107

     occupation numbers 
     1.0000   1.0000   1.0000   1.0000   1.0000   1.0000   1.0000   1.0000
     1.0000   1.0000   1.0000   1.0000   1.0000   1.0000   1.0000   1.0000
     1.0000   1.0000

          k = 0.2000 0.4619 0.0000 (  9568 PWs)   bands (ev):

    -4.4593  -4.3214  -2.9121  -2.8093  -2.7378  -2.7307  -2.7156  -2.6873
    -2.6318  -2.6022  -1.5937  -0.6166   4.7839   5.5650   6.5088   6.8211
     8.6385   8.7155

     occupation numbers 
     1.0000   1.0000   1.0000   1.0000   1.0000   1.0000   1.0000   1.0000
     1.0000   1.0000   1.0000   1.0000   1.0000   1.0000   1.0000   1.0000
     1.0000   1.0000

          k = 0.2000 0.4619 0.0615 (  9571 PWs)   bands (ev):

    -4.4509  -4.3200  -2.9066  -2.8150  -2.7510  -2.7281  -2.7111  -2.6854
    -2.6279  -2.6071  -1.5776  -0.6483   4.7040   5.5096   6.5930   6.9166
     8.5752   8.8167

     occupation numbers 
     1.0000   1.0000   1.0000   1.0000   1.0000   1.0000   1.0000   1.0000
     1.0000   1.0000   1.0000   1.0000   1.0000   1.0000   1.0000   1.0000
     1.0000   1.0000

          k = 0.2000 0.4619 0.1229 (  9566 PWs)   bands (ev):

    -4.4279  -4.3172  -2.8908  -2.8273  -2.7719  -2.7343  -2.7043  -2.6790
    -2.6226  -2.6162  -1.5288  -0.7384   4.5620   5.3358   6.6876   7.3227
     8.3758   9.0559

     occupation numbers 
     1.0000   1.0000   1.0000   1.0000   1.0000   1.0000   1.0000   1.0000
     1.0000   1.0000   1.0000   1.0000   1.0000   1.0000   1.0000   1.0000
     1.0000   1.0000

          k = 0.2000 0.4619 0.1844 (  9568 PWs)   bands (ev):

    -4.3962  -4.3164  -2.8678  -2.8374  -2.7951  -2.7442  -2.7026  -2.6775
    -2.6273  -2.6121  -1.4467  -0.8728   4.4777   5.0826   6.8398   7.8564
     8.1272   9.2507

     occupation numbers 
     1.0000   1.0000   1.0000   1.0000   1.0000   1.0000   1.0000   1.0000
     1.0000   1.0000   1.0000   1.0000   1.0000   1.0000   1.0000   1.0000
     1.0000   1.0000

          k = 0.2000 0.4619 0.2459 (  9579 PWs)   bands (ev):

    -4.3638  -4.3221  -2.8505  -2.8367  -2.8084  -2.7620  -2.7012  -2.6876
    -2.6218  -2.6105  -1.3320  -1.0305   4.4954   4.8242   7.0784   7.7120
     8.5222   9.2507

     occupation numbers 
     1.0000   1.0000   1.0000   1.0000   1.0000   1.0000   1.0000   1.0000
     1.0000   1.0000   1.0000   1.0000   1.0000   1.0000   1.0000   1.0000
     1.0000   1.0000

          k = 0.2000 0.4619-0.3073 (  9582 PWs)   bands (ev):

    -4.3378  -4.3378  -2.8427  -2.8427  -2.7885  -2.7885  -2.6968  -2.6968
    -2.6141  -2.6141  -1.1896  -1.1896   4.6170   4.6170   7.3805   7.3805
     8.9920   8.9920

     occupation numbers 
     1.0000   1.0000   1.0000   1.0000   1.0000   1.0000   1.0000   1.0000
     1.0000   1.0000   1.0000   1.0000   1.0000   1.0000   1.0000   1.0000
     1.0000   1.0000

          k = 0.2000 0.5774 0.0000 (  9564 PWs)   bands (ev):

    -4.4110  -4.3226  -2.9189  -2.8055  -2.7250  -2.7245  -2.6970  -2.6855
    -2.6365  -2.6004  -1.1857  -0.7484   4.5974   5.4669   6.2161   7.1039
     8.1917   8.4918

     occupation numbers 
     1.0000   1.0000   1.0000   1.0000   1.0000   1.0000   1.0000   1.0000
     1.0000   1.0000   1.0000   1.0000   1.0000   1.0000   1.0000   1.0000
     1.0000   1.0000

          k = 0.2000 0.5774 0.0615 (  9568 PWs)   bands (ev):

    -4.4044  -4.3204  -2.9130  -2.8112  -2.7403  -2.7188  -2.7057  -2.6684
    -2.6360  -2.6055  -1.1768  -0.7593   4.5305   5.3501   6.2406   7.2812
     8.2745   8.4695

     occupation numbers 
     1.0000   1.0000   1.0000   1.0000   1.0000   1.0000   1.0000   1.0000
     1.0000   1.0000   1.0000   1.0000   1.0000   1.0000   1.0000   1.0000
     1.0000   1.0000

          k = 0.2000 0.5774 0.1229 (  9585 PWs)   bands (ev):

    -4.3864  -4.3152  -2.8962  -2.8229  -2.7706  -2.7138  -2.7062  -2.6519
    -2.6344  -2.6176  -1.1504  -0.7915   4.3886   5.0753   6.3418   7.7132
     8.1426   8.7058

     occupation numbers 
     1.0000   1.0000   1.0000   1.0000   1.0000   1.0000   1.0000   1.0000
     1.0000   1.0000   1.0000   1.0000   1.0000   1.0000   1.0000   1.0000
     1.0000   1.0000

          k = 0.2000 0.5774 0.1844 (  9586 PWs)   bands (ev):

    -4.3620  -4.3105  -2.8720  -2.8311  -2.8015  -2.7282  -2.6928  -2.6509
    -2.6314  -2.6242  -1.1070  -0.8429   4.2706   4.7647   6.5337   7.8401
     8.2426   9.0199

     occupation numbers 
     1.0000   1.0000   1.0000   1.0000   1.0000   1.0000   1.0000   1.0000
     1.0000   1.0000   1.0000   1.0000   1.0000   1.0000   1.0000   1.0000
     1.0000   1.0000

          k = 0.2000 0.5774 0.2459 (  9582 PWs)   bands (ev):

    -4.3378  -4.3108  -2.8537  -2.8269  -2.8197  -2.7535  -2.6813  -2.6618
    -2.6274  -2.6229  -1.0487  -0.9085   4.2384   4.4971   6.8029   7.4862
     8.7396   9.1800

     occupation numbers 
     1.0000   1.0000   1.0000   1.0000   1.0000   1.0000   1.0000   1.0000
     1.0000   1.0000   1.0000   1.0000   1.0000   1.0000   1.0000   1.0000
     1.0000   1.0000

          k = 0.2000 0.5774-0.3073 (  9606 PWs)   bands (ev):

    -4.3197  -4.3197  -2.8438  -2.8438  -2.7873  -2.7873  -2.6717  -2.6717
    -2.6239  -2.6239  -0.9801  -0.9801   4.3147   4.3147   7.1291   7.1291
     9.0835   9.0835

     occupation numbers 
     1.0000   1.0000   1.0000   1.0000   1.0000   1.0000   1.0000   1.0000
     1.0000   1.0000   1.0000   1.0000   1.0000   1.0000   1.0000   1.0000
     1.0000   1.0000

          k = 0.3000 0.5196 0.0000 (  9546 PWs)   bands (ev):

    -4.3807  -4.3325  -2.9308  -2.7558  -2.7248  -2.7218  -2.7081  -2.6955
    -2.6507  -2.6117  -1.0912  -0.7106   5.0917   5.2171   5.8150   7.2403
     8.0428   8.0650

     occupation numbers 
     1.0000   1.0000   1.0000   1.0000   1.0000   1.0000   1.0000   1.0000
     1.0000   1.0000   1.0000   1.0000   1.0000   1.0000   1.0000   1.0000
     1.0000   1.0000

          k = 0.3000 0.5196 0.0615 (  9554 PWs)   bands (ev):

    -4.3752  -4.3295  -2.9245  -2.7683  -2.7395  -2.7217  -2.6975  -2.6873
    -2.6484  -2.6181  -1.0827  -0.7195   4.9867   5.1792   5.7865   7.4220
     7.9590   8.2127

     occupation numbers 
     1.0000   1.0000   1.0000   1.0000   1.0000   1.0000   1.0000   1.0000
     1.0000   1.0000   1.0000   1.0000   1.0000   1.0000   1.0000   1.0000
     1.0000   1.0000

          k = 0.3000 0.5196 0.1229 (  9568 PWs)   bands (ev):

    -4.3604  -4.3217  -2.9062  -2.7898  -2.7648  -2.7246  -2.6802  -2.6797
    -2.6419  -2.6344  -1.0576  -0.7458   4.7699   5.0268   5.8192   7.6935
     7.8917   8.5574

     occupation numbers 
     1.0000   1.0000   1.0000   1.0000   1.0000   1.0000   1.0000   1.0000
     1.0000   1.0000   1.0000   1.0000   1.0000   1.0000   1.0000   1.0000
     1.0000   1.0000

          k = 0.3000 0.5196 0.1844 (  9594 PWs)   bands (ev):

    -4.3409  -4.3130  -2.8774  -2.8087  -2.7893  -2.7352  -2.6788  -2.6708
    -2.6467  -2.6349  -1.0171  -0.7881   4.5762   4.7992   5.9919   7.3738
     8.3962   8.9218

     occupation numbers 
     1.0000   1.0000   1.0000   1.0000   1.0000   1.0000   1.0000   1.0000
     1.0000   1.0000   1.0000   1.0000   1.0000   1.0000   1.0000   1.0000
     1.0000   1.0000

          k = 0.3000 0.5196 0.2459 (  9618 PWs)   bands (ev):

    -4.3226  -4.3081  -2.8418  -2.8202  -2.8072  -2.7601  -2.6797  -2.6772
    -2.6405  -2.6316  -0.9642  -0.8428   4.4725   4.5980   6.2680   6.9929
     8.8559   9.1499

     occupation numbers 
     1.0000   1.0000   1.0000   1.0000   1.0000   1.0000   1.0000   1.0000
     1.0000   1.0000   1.0000   1.0000   1.0000   1.0000   1.0000   1.0000
     1.0000   1.0000

          k = 0.3000 0.5196-0.3073 (  9624 PWs)   bands (ev):

    -4.3109  -4.3109  -2.8228  -2.8228  -2.7958  -2.7958  -2.6802  -2.6802
    -2.6336  -2.6336  -0.9039  -0.9039   4.4808   4.4808   6.6120   6.6120
     9.1335   9.1335

     occupation numbers 
     1.0000   1.0000   1.0000   1.0000   1.0000   1.0000   1.0000   1.0000
     1.0000   1.0000   1.0000   1.0000   1.0000   1.0000   1.0000   1.0000
     1.0000   1.0000

     highest occupied level (ev):    10.6175

!    total energy              =    -347.51870983 Ry
     estimated scf accuracy    <          3.7E-09 Ry

     The total energy is the sum of the following terms:
     one-electron contribution =    -105.66952530 Ry
     hartree contribution      =      87.58572928 Ry
     xc contribution           =     -96.27808691 Ry
     ewald contribution        =    -233.15682690 Ry

     convergence has been achieved in  24 iterations

     Forces acting on atoms (cartesian axes, Ry/au):

     atom    1 type  1   force =     0.00000000   -0.00000000   -0.00006627
     atom    2 type  1   force =     0.00000000    0.00000000   -0.00006627
     atom    3 type  2   force =     0.00000000   -0.00000000    0.00006627
     atom    4 type  2   force =     0.00000000    0.00000000    0.00006627
     The non-local contrib.  to forces
     atom    1 type  1   force =     0.00000000   -0.00000000   -0.00034429
     atom    2 type  1   force =     0.00000000    0.00000000   -0.00034429
     atom    3 type  2   force =     0.00000000    0.00000000    0.01109515
     atom    4 type  2   force =     0.00000000    0.00000000    0.01109515
     The ionic contribution  to forces
     atom    1 type  1   force =     0.00000000   -0.00000000    0.13455126
     atom    2 type  1   force =    -0.00000000    0.00000000    0.13455126
     atom    3 type  2   force =     0.00000000   -0.00000000   -0.13455126
     atom    4 type  2   force =    -0.00000000    0.00000000   -0.13455126
     The local contribution  to forces
     atom    1 type  1   force =    -0.00000000    0.00000000   -0.13421575
     atom    2 type  1   force =     0.00000000   -0.00000000   -0.13421575
     atom    3 type  2   force =    -0.00000000    0.00000000    0.12387938
     atom    4 type  2   force =     0.00000000   -0.00000000    0.12387938
     The core correction contribution to forces
     atom    1 type  1   force =     0.00000000   -0.00000000   -0.00009339
     atom    2 type  1   force =    -0.00000000    0.00000000   -0.00009339
     atom    3 type  2   force =    -0.00000000    0.00000000   -0.00035046
     atom    4 type  2   force =    -0.00000000    0.00000000   -0.00035046
     The Hubbard contrib.    to forces
     atom    1 type  1   force =     0.00000000    0.00000000    0.00000000
     atom    2 type  1   force =     0.00000000    0.00000000    0.00000000
     atom    3 type  2   force =     0.00000000    0.00000000    0.00000000
     atom    4 type  2   force =     0.00000000    0.00000000    0.00000000
     The SCF correction term to forces
     atom    1 type  1   force =     0.00000000    0.00000000    0.00004139
     atom    2 type  1   force =    -0.00000000   -0.00000000    0.00004139
[...]
     1.0000   1.0000

          k = 0.0991 0.5149 0.2433 (  9860 PWs)   bands (ev):

    -4.6889  -4.6503  -3.3140  -3.2857  -3.2448  -3.1903  -3.1342  -3.1031
    -3.0671  -3.0607  -1.7331  -1.5049   3.7924   4.1465   7.3960   8.0251
     8.1503   8.7816

     occupation numbers 
     1.0000   1.0000   1.0000   1.0000   1.0000   1.0000   1.0000   1.0000
     1.0000   1.0000   1.0000   1.0000   1.0000   1.0000   1.0000   1.0000
     1.0000   1.0000

          k = 0.0991 0.5149-0.3042 (  9864 PWs)   bands (ev):

    -4.6650  -4.6650  -3.3045  -3.3045  -3.2169  -3.2169  -3.1165  -3.1165
    -3.0640  -3.0640  -1.6245  -1.6245   3.9216   3.9216   7.7259   7.7259
     8.5446   8.5446

     occupation numbers 
     1.0000   1.0000   1.0000   1.0000   1.0000   1.0000   1.0000   1.0000
     1.0000   1.0000   1.0000   1.0000   1.0000   1.0000   1.0000   1.0000
     1.0000   1.0000

          k = 0.1982 0.3433-0.0000 (  9840 PWs)   bands (ev):

    -4.8805  -4.6603  -3.3269  -3.2711  -3.2183  -3.1909  -3.1798  -3.1271
    -3.0995  -3.0611  -2.5702  -1.1528   4.5025   5.9013   5.9780   7.2442
     8.7757   8.9547

     occupation numbers 
     1.0000   1.0000   1.0000   1.0000   1.0000   1.0000   1.0000   1.0000
     1.0000   1.0000   1.0000   1.0000   1.0000   1.0000   1.0000   1.0000
     1.0000   1.0000

          k = 0.1982 0.3433 0.0608 (  9848 PWs)   bands (ev):

    -4.8690  -4.6602  -3.3228  -3.2744  -3.2208  -3.2031  -3.1644  -3.1351
    -3.0931  -3.0650  -2.5512  -1.2100   4.4906   5.8527   6.1396   7.2207
     8.7162   9.0145

     occupation numbers 
     1.0000   1.0000   1.0000   1.0000   1.0000   1.0000   1.0000   1.0000
     1.0000   1.0000   1.0000   1.0000   1.0000   1.0000   1.0000   1.0000
     1.0000   1.0000

          k = 0.1982 0.3433 0.1217 (  9864 PWs)   bands (ev):

    -4.8373  -4.6611  -3.3111  -3.2817  -3.2284  -3.2145  -3.1490  -3.1480
    -3.0833  -3.0736  -2.4930  -1.3668   4.4944   5.7012   6.5623   7.2119
     8.5503   9.1113

     occupation numbers 
     1.0000   1.0000   1.0000   1.0000   1.0000   1.0000   1.0000   1.0000
     1.0000   1.0000   1.0000   1.0000   1.0000   1.0000   1.0000   1.0000
     1.0000   1.0000

          k = 0.1982 0.3433 0.1825 (  9858 PWs)   bands (ev):

    -4.7931  -4.6665  -3.2939  -3.2868  -3.2403  -3.2232  -3.1609  -3.1443
    -3.0782  -3.0757  -2.3920  -1.5862   4.5633   5.4624   7.1345   7.2934
     8.3123   9.0918

     occupation numbers 
     1.0000   1.0000   1.0000   1.0000   1.0000   1.0000   1.0000   1.0000
     1.0000   1.0000   1.0000   1.0000   1.0000   1.0000   1.0000   1.0000
     1.0000   1.0000

          k = 0.1982 0.3433 0.2433 (  9849 PWs)   bands (ev):

    -4.7467  -4.6808  -3.2856  -3.2771  -3.2514  -3.2325  -3.1668  -3.1540
    -3.0755  -3.0718  -2.2451  -1.8265   4.7098   5.1869   7.4686   7.7196
     8.0803   8.8559

     occupation numbers 
     1.0000   1.0000   1.0000   1.0000   1.0000   1.0000   1.0000   1.0000
     1.0000   1.0000   1.0000   1.0000   1.0000   1.0000   1.0000   1.0000
     1.0000   1.0000

          k = 0.1982 0.3433-0.3042 (  9850 PWs)   bands (ev):

    -4.7075  -4.7075  -3.2783  -3.2783  -3.2450  -3.2450  -3.1643  -3.1643
    -3.0719  -3.0719  -2.0534  -2.0534   4.9247   4.9247   7.7009   7.7009
     8.4132   8.4132

     occupation numbers 
     1.0000   1.0000   1.0000   1.0000   1.0000   1.0000   1.0000   1.0000
     1.0000   1.0000   1.0000   1.0000   1.0000   1.0000   1.0000   1.0000
     1.0000   1.0000

          k = 0.1982 0.4577-0.0000 (  9844 PWs)   bands (ev):

    -4.7654  -4.6512  -3.3419  -3.2482  -3.1835  -3.1766  -3.1626  -3.1376
    -3.0866  -3.0595  -2.0241  -1.0908   4.4460   5.2087   6.1763   6.4918
     8.2519   8.3274

     occupation numbers 
     1.0000   1.0000   1.0000   1.0000   1.0000   1.0000   1.0000   1.0000
     1.0000   1.0000   1.0000   1.0000   1.0000   1.0000   1.0000   1.0000
     1.0000   1.0000

          k = 0.1982 0.4577 0.0608 (  9853 PWs)   bands (ev):

    -4.7579  -4.6497  -3.3368  -3.2534  -3.1951  -3.1744  -3.1587  -3.1357
    -3.0831  -3.0639  -2.0084  -1.1207   4.3715   5.1507   6.2560   6.5890
     8.1885   8.4265

     occupation numbers 
     1.0000   1.0000   1.0000   1.0000   1.0000   1.0000   1.0000   1.0000
     1.0000   1.0000   1.0000   1.0000   1.0000   1.0000   1.0000   1.0000
     1.0000   1.0000

          k = 0.1982 0.4577 0.1217 (  9863 PWs)   bands (ev):

    -4.7377  -4.6464  -3.3223  -3.2645  -3.2139  -3.1800  -3.1523  -3.1297
    -3.0780  -3.0721  -1.9610  -1.2057   4.2368   4.9763   6.3579   6.9774
     7.9962   8.6564

     occupation numbers 
     1.0000   1.0000   1.0000   1.0000   1.0000   1.0000   1.0000   1.0000
     1.0000   1.0000   1.0000   1.0000   1.0000   1.0000   1.0000   1.0000
     1.0000   1.0000

          k = 0.1982 0.4577 0.1825 (  9872 PWs)   bands (ev):

    -4.7101  -4.6445  -3.3011  -3.2735  -3.2350  -3.1893  -3.1504  -3.1279
    -3.0821  -3.0687  -1.8813  -1.3326   4.1544   4.7293   6.5117   7.4943
     7.7536   8.8439

     occupation numbers 
     1.0000   1.0000   1.0000   1.0000   1.0000   1.0000   1.0000   1.0000
     1.0000   1.0000   1.0000   1.0000   1.0000   1.0000   1.0000   1.0000
     1.0000   1.0000

          k = 0.1982 0.4577 0.2433 (  9874 PWs)   bands (ev):

    -4.6823  -4.6481  -3.2846  -3.2724  -3.2476  -3.2056  -3.1489  -3.1365
    -3.0773  -3.0672  -1.7706  -1.4822   4.1685   4.4804   6.7449   7.3581
     8.1337   8.8427

     occupation numbers 
     1.0000   1.0000   1.0000   1.0000   1.0000   1.0000   1.0000   1.0000
     1.0000   1.0000   1.0000   1.0000   1.0000   1.0000   1.0000   1.0000
     1.0000   1.0000

          k = 0.1982 0.4577-0.3042 (  9868 PWs)   bands (ev):

    -4.6605  -4.6605  -3.2775  -3.2775  -3.2298  -3.2298  -3.1448  -3.1448
    -3.0705  -3.0705  -1.6339  -1.6339   4.2827   4.2827   7.0376   7.0376
     8.5905   8.5905

     occupation numbers 
     1.0000   1.0000   1.0000   1.0000   1.0000   1.0000   1.0000   1.0000
     1.0000   1.0000   1.0000   1.0000   1.0000   1.0000   1.0000   1.0000
     1.0000   1.0000

          k = 0.1982 0.5721-0.0000 (  9850 PWs)   bands (ev):

    -4.7260  -4.6518  -3.3481  -3.2446  -3.1716  -3.1710  -3.1456  -3.1360
    -3.0912  -3.0581  -1.6365  -1.2090   4.2732   5.0968   5.8965   6.7732
     7.8265   8.1042

     occupation numbers 
     1.0000   1.0000   1.0000   1.0000   1.0000   1.0000   1.0000   1.0000
     1.0000   1.0000   1.0000   1.0000   1.0000   1.0000   1.0000   1.0000
     1.0000   1.0000

          k = 0.1982 0.5721 0.0608 (  9854 PWs)   bands (ev):

    -4.7201  -4.6496  -3.3427  -3.2498  -3.1852  -3.1658  -3.1543  -3.1200
    -3.0907  -3.0626  -1.6279  -1.2199   4.2093   4.9862   5.9240   6.9407
     7.9043   8.0838

     occupation numbers 
     1.0000   1.0000   1.0000   1.0000   1.0000   1.0000   1.0000   1.0000
     1.0000   1.0000   1.0000   1.0000   1.0000   1.0000   1.0000   1.0000
     1.0000   1.0000

          k = 0.1982 0.5721 0.1217 (  9872 PWs)   bands (ev):

    -4.7041  -4.6445  -3.3272  -3.2604  -3.2125  -3.1618  -3.1541  -3.1048
    -3.0892  -3.0734  -1.6022  -1.2519   4.0734   4.7250   6.0269   7.3532
     7.7716   8.3167

     occupation numbers 
     1.0000   1.0000   1.0000   1.0000   1.0000   1.0000   1.0000   1.0000
     1.0000   1.0000   1.0000   1.0000   1.0000   1.0000   1.0000   1.0000
     1.0000   1.0000

          k = 0.1982 0.5721 0.1825 (  9869 PWs)   bands (ev):

    -4.6826  -4.6395  -3.3048  -3.2679  -3.2403  -3.1750  -3.1416  -3.1036
    -3.0865  -3.0795  -1.5600  -1.3027   3.9597   4.4284   6.2152   7.4794
     7.8637   8.6206

     occupation numbers 
     1.0000   1.0000   1.0000   1.0000   1.0000   1.0000   1.0000   1.0000
     1.0000   1.0000   1.0000   1.0000   1.0000   1.0000   1.0000   1.0000
     1.0000   1.0000

          k = 0.1982 0.5721 0.2433 (  9871 PWs)   bands (ev):

    -4.6614  -4.6389  -3.2875  -3.2632  -3.2581  -3.1979  -3.1310  -3.1132
    -3.0827  -3.0783  -1.5033  -1.3668   3.9276   4.1728   6.4767   7.1377
     8.3455   8.7751

     occupation numbers 
     1.0000   1.0000   1.0000   1.0000   1.0000   1.0000   1.0000   1.0000
     1.0000   1.0000   1.0000   1.0000   1.0000   1.0000   1.0000   1.0000
     1.0000   1.0000

          k = 0.1982 0.5721-0.3042 (  9886 PWs)   bands (ev):

    -4.6459  -4.6459  -3.2784  -3.2784  -3.2285  -3.2285  -3.1222  -3.1222
    -3.0793  -3.0793  -1.4366  -1.4366   3.9992   3.9992   6.7925   6.7925
     8.6803   8.6803

     occupation numbers 
     1.0000   1.0000   1.0000   1.0000   1.0000   1.0000   1.0000   1.0000
     1.0000   1.0000   1.0000   1.0000   1.0000   1.0000   1.0000   1.0000
     1.0000   1.0000

          k = 0.2973 0.5149-0.0000 (  9876 PWs)   bands (ev):

    -4.6998  -4.6600  -3.3591  -3.1989  -3.1706  -3.1696  -3.1563  -3.1452
    -3.1041  -3.0685  -1.5417  -1.1790   4.7348   4.8942   5.4857   6.9027
     7.6740   7.7006

     occupation numbers 
     1.0000   1.0000   1.0000   1.0000   1.0000   1.0000   1.0000   1.0000
     1.0000   1.0000   1.0000   1.0000   1.0000   1.0000   1.0000   1.0000
     1.0000   1.0000

          k = 0.2973 0.5149 0.0608 (  9866 PWs)   bands (ev):

    -4.6949  -4.6572  -3.3533  -3.2104  -3.1842  -3.1693  -3.1466  -3.1374
    -3.1020  -3.0742  -1.5337  -1.1877   4.6368   4.8464   5.4721   7.0757
     7.5934   7.8415

     occupation numbers 
     1.0000   1.0000   1.0000   1.0000   1.0000   1.0000   1.0000   1.0000
     1.0000   1.0000   1.0000   1.0000   1.0000   1.0000   1.0000   1.0000
     1.0000   1.0000

          k = 0.2973 0.5149 0.1217 (  9864 PWs)   bands (ev):

    -4.6817  -4.6498  -3.3365  -3.2299  -3.2071  -3.1720  -3.1308  -3.1301
    -3.0959  -3.0888  -1.5099  -1.2132   4.4323   4.6838   5.5232   7.3402
     7.5243   8.1725

     occupation numbers 
     1.0000   1.0000   1.0000   1.0000   1.0000   1.0000   1.0000   1.0000
     1.0000   1.0000   1.0000   1.0000   1.0000   1.0000   1.0000   1.0000
     1.0000   1.0000

          k = 0.2973 0.5149 0.1825 (  9881 PWs)   bands (ev):

    -4.6643  -4.6414  -3.3101  -3.2468  -3.2293  -3.1815  -3.1295  -3.1217
    -3.1000  -3.0893  -1.4717  -1.2540   4.2477   4.4602   5.6969   7.0317
     8.0127   8.5245

     occupation numbers 
     1.0000   1.0000   1.0000   1.0000   1.0000   1.0000   1.0000   1.0000
     1.0000   1.0000   1.0000   1.0000   1.0000   1.0000   1.0000   1.0000
     1.0000   1.0000

          k = 0.2973 0.5149 0.2433 (  9873 PWs)   bands (ev):

    -4.6483  -4.6363  -3.2776  -3.2571  -3.2456  -3.2040  -3.1302  -3.1276
    -3.0942  -3.0862  -1.4217  -1.3063   4.1477   4.2665   5.9651   6.6647
     8.4590   8.7455

     occupation numbers 
     1.0000   1.0000   1.0000   1.0000   1.0000   1.0000   1.0000   1.0000
     1.0000   1.0000   1.0000   1.0000   1.0000   1.0000   1.0000   1.0000
     1.0000   1.0000

          k = 0.2973 0.5149-0.3042 (  9882 PWs)   bands (ev):

    -4.6382  -4.6382  -3.2593  -3.2593  -3.2362  -3.2362  -3.1305  -3.1305
    -3.0879  -3.0879  -1.3645  -1.3645   4.1547   4.1547   6.2973   6.2973
     8.7292   8.7292

     occupation numbers 
     1.0000   1.0000   1.0000   1.0000   1.0000   1.0000   1.0000   1.0000
     1.0000   1.0000   1.0000   1.0000   1.0000   1.0000   1.0000   1.0000
     1.0000   1.0000

     highest occupied level (ev):    10.1665

!    total energy              =    -347.52026865 Ry
     estimated scf accuracy    <          1.0E-11 Ry

     The total energy is the sum of the following terms:
     one-electron contribution =    -109.06631762 Ry
     hartree contribution      =      88.69561030 Ry
     xc contribution           =     -96.20081366 Ry
     ewald contribution        =    -230.94874768 Ry

     convergence has been achieved in  26 iterations

     Forces acting on atoms (cartesian axes, Ry/au):

     atom    1 type  1   force =     0.00000000    0.00000000    0.00004744
     atom    2 type  1   force =    -0.00000000    0.00000000    0.00004744
     atom    3 type  2   force =     0.00000000    0.00000000   -0.00004744
     atom    4 type  2   force =     0.00000000   -0.00000000   -0.00004744
     The non-local contrib.  to forces
     atom    1 type  1   force =    -0.00000000    0.00000000    0.00047963
     atom    2 type  1   force =     0.00000000    0.00000000    0.00047963
     atom    3 type  2   force =     0.00000000    0.00000000    0.01293000
     atom    4 type  2   force =    -0.00000000    0.00000000    0.01293000
     The ionic contribution  to forces
     atom    1 type  1   force =     0.00000000   -0.00000000    0.15317097
     atom    2 type  1   force =    -0.00000000    0.00000000    0.15317097
     atom    3 type  2   force =     0.00000000   -0.00000000   -0.15317097
     atom    4 type  2   force =    -0.00000000    0.00000000   -0.15317097
     The local contribution  to forces
     atom    1 type  1   force =     0.00000000    0.00000000   -0.15366756
     atom    2 type  1   force =    -0.00000000   -0.00000000   -0.15366756
     atom    3 type  2   force =     0.00000000    0.00000000    0.14058529
     atom    4 type  2   force =    -0.00000000   -0.00000000    0.14058529
     The core correction contribution to forces
     atom    1 type  1   force =     0.00000000    0.00000000    0.00006136
     atom    2 type  1   force =    -0.00000000    0.00000000    0.00006136
     atom    3 type  2   force =    -0.00000000    0.00000000   -0.00039261
     atom    4 type  2   force =     0.00000000   -0.00000000   -0.00039261
     The Hubbard contrib.    to forces
     atom    1 type  1   force =     0.00000000    0.00000000    0.00000000
     atom    2 type  1   force =     0.00000000    0.00000000    0.00000000
     atom    3 type  2   force =     0.00000000    0.00000000    0.00000000
     atom    4 type  2   force =     0.00000000    0.00000000    0.00000000
     The SCF correction term to forces
     atom    1 type  1   force =     0.00000000   -0.00000000    0.00000321
     atom    2 type  1   force =    -0.00000000    0.00000000    0.00000321
     atom    3 type  2   force =     0.00000000   -0.00000000    0.00000103
     atom    4 type  2   force =     0.00000000    0.00000000    0.00000103

     Total force =     0.000095     Total SCF correction =     0.000005


     Computing stress (Cartesian axis) and pressure

          total   stress  (Ry/bohr**3)                   (kbar)     P=       -0.05
  -0.00000029  -0.00000000   0.00000000           -0.04       -0.00        0.00
  -0.00000000  -0.00000029  -0.00000000           -0.00       -0.04       -0.00
   0.00000000  -0.00000000  -0.00000035            0.00       -0.00       -0.05

     kinetic stress (kbar)  86559.23      0.00     -0.00
                                0.00  86559.23     -0.00
                               -0.00     -0.00  86575.43

     local   stress (kbar)   4776.68     -0.00     -0.00
                               -0.00   4776.68     -0.00
                               -0.00     -0.00   3053.82

     nonloc. stress (kbar) -58196.37     -0.00      0.00
                               -0.00 -58196.37      0.00
                                0.00      0.00 -58202.55

     hartree stress (kbar)  13433.06      0.00      0.00
                                0.00  13433.06     -0.00
                                0.00     -0.00  14215.29

     exc-cor stress (kbar)  12588.93     -0.00      0.00
                               -0.00  12588.93     -0.00
                                0.00     -0.00  12589.30

     corecor stress (kbar) -23194.95      0.00     -0.00
                                0.00 -23194.95      0.00
                               -0.00      0.00 -23195.39

     ewald   stress (kbar) -35966.62     -0.00     -0.00
                               -0.00 -35966.62     -0.00
                               -0.00     -0.00 -35035.94

     hubbard stress (kbar)      0.00      0.00      0.00
                                0.00      0.00      0.00
                                0.00      0.00      0.00

     DFT-D   stress (kbar)      0.00      0.00      0.00
                                0.00      0.00      0.00
                                0.00      0.00      0.00

     XDM     stress (kbar)      0.00      0.00      0.00
                                0.00      0.00      0.00
                                0.00      0.00      0.00

     dft-nl  stress (kbar)      0.00      0.00      0.00
                                0.00      0.00      0.00
                                0.00      0.00      0.00

     TS-vdW  stress (kbar)      0.00      0.00      0.00
                                0.00      0.00      0.00
                                0.00      0.00      0.00


                                0.00      0.00      0.00
                                0.00      0.00      0.00


                                0.00      0.00      0.00


     Writing output data file ../tmp/GaN_exc1.save/
 
     init_run     :      3.92s CPU      4.03s WALL (       2 calls)
     electrons    :    210.71s CPU    213.86s WALL (       6 calls)
     update_pot   :      3.75s CPU      3.75s WALL (       4 calls)
     forces       :      5.09s CPU      5.10s WALL (       6 calls)
     stress       :     11.71s CPU     11.73s WALL (       6 calls)

     Called by init_run:
     wfcinit      :      1.66s CPU      1.72s WALL (       2 calls)
     wfcinit:atom :      0.05s CPU      0.05s WALL (     168 calls)
     wfcinit:wfcr :      1.33s CPU      1.36s WALL (     168 calls)
     potinit      :      0.63s CPU      0.63s WALL (       2 calls)
     hinit0       :      1.32s CPU      1.36s WALL (       2 calls)

     Called by electrons:
     c_bands      :    185.52s CPU    188.24s WALL (     105 calls)
     sum_band     :     23.71s CPU     24.10s WALL (     105 calls)
     v_of_rho     :      1.17s CPU      1.18s WALL (     109 calls)
     v_h          :      0.04s CPU      0.04s WALL (     109 calls)
     v_xc         :      1.25s CPU      1.26s WALL (     121 calls)
     mix_rho      :      0.30s CPU      0.31s WALL (     105 calls)

     Called by c_bands:
     init_us_2    :      7.58s CPU      7.75s WALL (   18816 calls)
     cegterg      :    155.96s CPU    158.42s WALL (    8820 calls)

     Called by sum_band:
     sum_band:wei :      0.00s CPU      0.00s WALL (     105 calls)
     sum_band:loo :     23.50s CPU     23.89s WALL (     105 calls)
     sum_band:buf :      0.58s CPU      0.60s WALL (    8820 calls)
     sum_band:ini :      3.46s CPU      3.52s WALL (    8820 calls)

     Called by *egterg:
     cdiaghg      :     18.05s CPU     18.24s WALL (   30543 calls)
     cegterg:over :      9.47s CPU      9.60s WALL (   22227 calls)
     cegterg:upda :      4.81s CPU      4.87s WALL (   22227 calls)
     cegterg:last :      6.77s CPU      6.84s WALL (   18077 calls)
     cdiaghg:chol :      1.65s CPU      1.68s WALL (   30543 calls)
     cdiaghg:inve :      0.40s CPU      0.41s WALL (   30543 calls)
     cdiaghg:para :      1.88s CPU      1.89s WALL (   61086 calls)
     h_psi        :    112.19s CPU    114.23s WALL (   31215 calls)
     g_psi        :      1.34s CPU      1.35s WALL (   22227 calls)

     Called by h_psi:
     h_psi:calbec :      7.01s CPU      7.15s WALL (   31215 calls)
     vloc_psi     :     97.24s CPU     99.01s WALL (   31215 calls)
     add_vuspsi   :      6.50s CPU      6.63s WALL (   31215 calls)

     General routines
     calbec       :      7.85s CPU      8.01s WALL (   33735 calls)
     fft          :      0.34s CPU      0.39s WALL (    1240 calls)
     ffts         :      0.03s CPU      0.03s WALL (     105 calls)
     fftw         :     95.21s CPU     96.90s WALL ( 1018850 calls)
 
     Parallel routines
 
     PWSCF        :   3m55.44s CPU   3m59.02s WALL

 
   This run was terminated on:  16:29:51  28Mar2023            

=------------------------------------------------------------------------------=
   JOB DONE.
=------------------------------------------------------------------------------=
