   2   16
1 1
     0.268814421042658    -0.000000000000000    -0.000000000000000
    -0.000000000000000     0.268814421042658    -0.000000000000000
    -0.000000000000000     0.000000000000000     0.268814421042658
1 2
    -0.009181958330403     0.000000000000000     0.009275473202215
    -0.000000000000000     0.017394473263798     0.000000000000000
     0.009275473202215     0.000000000000000    -0.009181958330403
1 3
     0.017394473263798    -0.000000000000000     0.000000000000000
    -0.000000000000000    -0.009181958330403    -0.009275473202215
    -0.000000000000000    -0.009275473202215    -0.009181958330403
1 4
    -0.009181958330403    -0.009275473202215    -0.000000000000000
    -0.009275473202215    -0.009181958330403    -0.000000000000000
    -0.000000000000000    -0.000000000000000     0.017394473263798
1 5
    -0.009181958330403     0.009275473202215    -0.000000000000000
     0.009275473202215    -0.009181958330403    -0.000000000000000
     0.000000000000000    -0.000000000000000     0.017394473263798
1 6
     0.017394473263798    -0.000000000000000     0.000000000000000
     0.000000000000000    -0.009181958330403     0.009275473202215
    -0.000000000000000     0.009275473202215    -0.009181958330403
1 7
    -0.009181958330403     0.000000000000000    -0.009275473202215
     0.000000000000000     0.017394473263798     0.000000000000000
    -0.009275473202215     0.000000000000000    -0.009181958330403
1 8
    -0.001700591808754     0.000000000000000    -0.000000000000000
     0.000000000000000    -0.001700591808754     0.000000000000000
     0.000000000000000    -0.000000000000000    -0.001700591808754
1 9
     0.002851231318439     0.002964721956820     0.002964721956820
     0.002964721956820     0.002851231318439    -0.002964721956820
     0.002964721956820    -0.002964721956820     0.002851231318439
1 10
     0.002851231318439    -0.002964721956820     0.002964721956820
    -0.002964721956820     0.002851231318439     0.002964721956820
     0.002964721956820     0.002964721956820     0.002851231318439
1 11
     0.002851231318439    -0.002964721956820    -0.002964721956820
    -0.002964721956820     0.002851231318439    -0.002964721956820
    -0.002964721956820    -0.002964721956820     0.002851231318439
1 12
    -0.069144966928412     0.043325581531819    -0.043325581531819
     0.043325581531819    -0.069144966928412     0.043325581531819
    -0.043325581531819     0.043325581531819    -0.069144966928412
1 13
     0.002851231318439     0.002964721956820    -0.002964721956820
     0.002964721956820     0.002851231318439     0.002964721956820
    -0.002964721956820     0.002964721956820     0.002851231318439
1 14
    -0.069144966928412    -0.043325581531819    -0.043325581531819
    -0.043325581531819    -0.069144966928412    -0.043325581531819
    -0.043325581531819    -0.043325581531819    -0.069144966928412
1 15
    -0.069144966928412    -0.043325581531819     0.043325581531819
    -0.043325581531819    -0.069144966928412     0.043325581531819
     0.043325581531819     0.043325581531819    -0.069144966928412
1 16
    -0.069144966928412     0.043325581531819     0.043325581531819
     0.043325581531819    -0.069144966928412    -0.043325581531819
     0.043325581531819    -0.043325581531819    -0.069144966928412
9 1
     0.002851231318439     0.002964721956820     0.002964721956820
     0.002964721956820     0.002851231318439    -0.002964721956820
     0.002964721956820    -0.002964721956820     0.002851231318439
9 2
     0.002851231318439    -0.002964721956820     0.002964721956820
    -0.002964721956820     0.002851231318439     0.002964721956820
     0.002964721956820     0.002964721956820     0.002851231318439
9 3
     0.002851231318439    -0.002964721956820    -0.002964721956820
    -0.002964721956820     0.002851231318439    -0.002964721956820
    -0.002964721956820    -0.002964721956820     0.002851231318439
9 4
    -0.069144966928412     0.043325581531819    -0.043325581531819
     0.043325581531819    -0.069144966928412     0.043325581531819
    -0.043325581531819     0.043325581531819    -0.069144966928412
9 5
     0.002851231318439     0.002964721956820    -0.002964721956820
     0.002964721956820     0.002851231318439     0.002964721956820
    -0.002964721956820     0.002964721956820     0.002851231318439
9 6
    -0.069144966928412    -0.043325581531819    -0.043325581531819
    -0.043325581531819    -0.069144966928412    -0.043325581531819
    -0.043325581531819    -0.043325581531819    -0.069144966928412
9 7
    -0.069144966928412    -0.043325581531819     0.043325581531819
    -0.043325581531819    -0.069144966928412     0.043325581531819
     0.043325581531819     0.043325581531819    -0.069144966928412
9 8
    -0.069144966928412     0.043325581531819     0.043325581531819
     0.043325581531819    -0.069144966928412    -0.043325581531819
     0.043325581531819    -0.043325581531819    -0.069144966928412
9 9
     0.268814421042658    -0.000000000000000    -0.000000000000000
    -0.000000000000000     0.268814421042658    -0.000000000000000
     0.000000000000000     0.000000000000000     0.268814421042658
9 10
    -0.009181958330403    -0.000000000000000     0.009275473202215
    -0.000000000000000     0.017394473263798    -0.000000000000000
     0.009275473202215     0.000000000000000    -0.009181958330403
9 11
     0.017394473263798     0.000000000000000     0.000000000000000
    -0.000000000000000    -0.009181958330403    -0.009275473202215
     0.000000000000000    -0.009275473202215    -0.009181958330403
9 12
    -0.009181958330403    -0.009275473202215    -0.000000000000000
    -0.009275473202215    -0.009181958330403    -0.000000000000000
    -0.000000000000000    -0.000000000000000     0.017394473263798
9 13
    -0.009181958330403     0.009275473202215    -0.000000000000000
     0.009275473202215    -0.009181958330403    -0.000000000000000
    -0.000000000000000     0.000000000000000     0.017394473263798
9 14
     0.017394473263798    -0.000000000000000     0.000000000000000
    -0.000000000000000    -0.009181958330403     0.009275473202215
     0.000000000000000     0.009275473202215    -0.009181958330403
9 15
    -0.009181958330403     0.000000000000000    -0.009275473202215
     0.000000000000000     0.017394473263798     0.000000000000000
    -0.009275473202215     0.000000000000000    -0.009181958330403
9 16
    -0.001700591808754     0.000000000000000     0.000000000000000
     0.000000000000000    -0.001700591808754     0.000000000000000
    -0.000000000000000    -0.000000000000000    -0.001700591808754