16   
1    

1    
 -0.0141421356237310   0.0000000000000000   0.0141421356237310
   0.0038016100    0.0000623812   -0.0038016100
  -0.0002611100   -0.0000021388    0.0002611100
   0.0002456700    0.0001336813    0.0001304200
  -0.0001292600   -0.0001285287   -0.0002463200
  -0.0001304200    0.0001336813   -0.0002456700
   0.0002463200   -0.0001285287    0.0001292600
   0.0000013800   -0.0000019888   -0.0000013800
  -0.0000240500   -0.0000015788    0.0000240500
  -0.0000009500    0.0000841112    0.0000009500
  -0.0000021000   -0.0000839188    0.0000021000
   0.0000805700    0.0000016812   -0.0000837700
  -0.0003625900   -0.0000052488    0.0003676900
   0.0000837700    0.0000016812   -0.0000805700
  -0.0003676900   -0.0000052488    0.0003625900
  -0.0016098600   -0.0012554487    0.0016098600
  -0.0015712900    0.0011954113    0.0015712900
