nqpoint: 1      
natom:   2      
reciprocal_lattice:
- [  -0.09665653,  -0.09665653,   0.09665653 ] # a*
- [   0.09665653,   0.09665653,   0.09665653 ] # b*
- [  -0.09665653,   0.09665653,  -0.09665653 ] # c*
phonon:
- q-position: [    0.0000000,    0.0000000,    0.0000000 ]
  dynamical_matrix:
  - [    0.0094417027,   -0.0000000000,   -0.0000000000,    0.0000000000,   -0.0000000000,    0.0000000000,   -0.0094417027,    0.0000000000,    0.0000000000,    0.0000000000,    0.0000000000,    0.0000000000 ]
  - [   -0.0000000000,   -0.0000000000,    0.0094417027,   -0.0000000000,   -0.0000000000,    0.0000000000,    0.0000000000,    0.0000000000,   -0.0094417027,    0.0000000000,    0.0000000000,    0.0000000000 ]
  - [   -0.0000000000,   -0.0000000000,   -0.0000000000,   -0.0000000000,    0.0094417027,   -0.0000000000,    0.0000000000,    0.0000000000,   -0.0000000000,    0.0000000000,   -0.0094417027,    0.0000000000 ]
  - [   -0.0094417027,   -0.0000000000,    0.0000000000,   -0.0000000000,    0.0000000000,   -0.0000000000,    0.0094417027,   -0.0000000000,   -0.0000000000,    0.0000000000,   -0.0000000000,    0.0000000000 ]
  - [    0.0000000000,   -0.0000000000,   -0.0094417027,   -0.0000000000,   -0.0000000000,   -0.0000000000,   -0.0000000000,   -0.0000000000,    0.0094417027,   -0.0000000000,   -0.0000000000,    0.0000000000 ]
  - [    0.0000000000,   -0.0000000000,    0.0000000000,   -0.0000000000,   -0.0094417027,   -0.0000000000,   -0.0000000000,   -0.0000000000,   -0.0000000000,   -0.0000000000,    0.0094417027,   -0.0000000000 ]
  band:
  - # 1
    frequency:   -0.0000002347
    eigenvector:
    - # atom 1
      - [ -0.63208746399744,  0.00000000000000 ]
      - [  0.02885900878644,  0.00000000000000 ]
      - [  0.31564631388494,  0.00000000000000 ]
    - # atom 2
      - [ -0.63208746399744,  0.00000000000000 ]
      - [  0.02885900878644,  0.00000000000000 ]
      - [  0.31564631388494,  0.00000000000000 ]
  - # 2
    frequency:   -0.0000001740
    eigenvector:
    - # atom 1
      - [ -0.06658289715941,  0.00000000000000 ]
      - [ -0.70054728603651,  0.00000000000000 ]
      - [ -0.06928360435730,  0.00000000000000 ]
    - # atom 2
      - [ -0.06658289715941,  0.00000000000000 ]
      - [ -0.70054728603651,  0.00000000000000 ]
      - [ -0.06928360435730,  0.00000000000000 ]
  - # 3
    frequency:   -0.0000001299
    eigenvector:
    - # atom 1
      - [ -0.30989055433031,  0.00000000000000 ]
      - [  0.09165510154237,  0.00000000000000 ]
      - [ -0.62894132214230,  0.00000000000000 ]
    - # atom 2
      - [ -0.30989055433031,  0.00000000000000 ]
      - [  0.09165510154237,  0.00000000000000 ]
      - [ -0.62894132214230,  0.00000000000000 ]
  - # 4
    frequency:   14.9744260872
    eigenvector:
    - # atom 1
      - [ -0.69226272108298,  0.00000000000000 ]
      - [  0.00000000000000,  0.00000000000000 ]
      - [ -0.14412607327887,  0.00000000000000 ]
    - # atom 2
      - [  0.69226272108298,  0.00000000000000 ]
      - [ -0.00000000000000,  0.00000000000000 ]
      - [  0.14412607327887,  0.00000000000000 ]
  - # 5
    frequency:   14.9744260872
    eigenvector:
    - # atom 1
      - [ -0.00000000000000,  0.00000000000000 ]
      - [  0.70710678118655,  0.00000000000000 ]
      - [  0.00000000000000,  0.00000000000000 ]
    - # atom 2
      - [  0.00000000000000,  0.00000000000000 ]
      - [ -0.70710678118655,  0.00000000000000 ]
      - [  0.00000000000000,  0.00000000000000 ]
  - # 6
    frequency:   14.9744260872
    eigenvector:
    - # atom 1
      - [  0.14412607327887,  0.00000000000000 ]
      - [  0.00000000000000,  0.00000000000000 ]
      - [ -0.69226272108298,  0.00000000000000 ]
    - # atom 2
      - [ -0.14412607327887,  0.00000000000000 ]
      - [ -0.00000000000000,  0.00000000000000 ]
      - [  0.69226272108298,  0.00000000000000 ]

