
     Program PWSCF v.6.6 starts on 20Mar2023 at 18:22:12 

     This program is part of the open-source Quantum ESPRESSO suite
     for quantum simulation of materials; please cite
         "P. Giannozzi et al., J. Phys.:Condens. Matter 21 395502 (2009);
         "P. Giannozzi et al., J. Phys.:Condens. Matter 29 465901 (2017);
          URL http://www.quantum-espresso.org", 
     in publications or presentations arising from this work. More details at
     http://www.quantum-espresso.org/quote

     Serial version
     Fft bands division:     nmany     =       1
     Waiting for input...
     Reading input from standard input

     Current dimensions of program PWSCF are:
     Max number of different atomic species (ntypx) = 10
     Max number of k-points (npk) =  40000
     Max angular momentum in pseudopotentials (lmaxx) =  3
     Message from routine setup:
     using ibrav=0 with symmetry is DISCOURAGED, use correct ibrav instead

     G-vector sticks info
     --------------------
     sticks:   dense  smooth     PW     G-vecs:    dense   smooth      PW
     Sum        1483    1483    433                37461    37461    5961



     bravais-lattice index     =            0
     lattice parameter (alat)  =      14.6313  a.u.
     unit-cell volume          =    2214.8094 (a.u.)^3
     number of atoms/cell      =           16
     number of atomic types    =            1
     number of electrons       =        64.00
     number of Kohn-Sham states=           32
     kinetic-energy cutoff     =      25.0000  Ry
     charge density cutoff     =     100.0000  Ry
     convergence threshold     =      1.0E-07
     mixing beta               =       0.7000
     number of iterations used =            8  plain     mixing
     Exchange-correlation=  SLA  PW   PBE  PBE
                           (   1   4   3   4   0   0   0)

     celldm(1)=  14.631329  celldm(2)=   0.000000  celldm(3)=   0.000000
     celldm(4)=   0.000000  celldm(5)=   0.000000  celldm(6)=   0.000000

     crystal axes: (cart. coord. in units of alat)
               a(1) = (  -0.707107   0.000000   0.707107 )  
               a(2) = (   0.000000   0.707107   0.707107 )  
               a(3) = (  -0.707107   0.707107   0.000000 )  

     reciprocal axes: (cart. coord. in units 2 pi/alat)
               b(1) = ( -0.707107 -0.707107  0.707107 )  
               b(2) = (  0.707107  0.707107  0.707107 )  
               b(3) = ( -0.707107  0.707107 -0.707107 )  


     PseudoPot. # 1 for Si read from file:
     ../pseudo/Si.pbe-rrkj.UPF
     MD5 check sum: cf7ab5690cd9a85b22c4813f7e365554
     Pseudo is Norm-conserving, Zval =  4.0
     Generated by new atomic code, or converted to UPF format
     Using radial grid of  883 points,  3 beta functions with: 
                l(1) =   0
                l(2) =   0
                l(3) =   1

     atomic species   valence    mass     pseudopotential
        Si             4.00    28.08550     Si( 1.00)

      2 Sym. Ops. (no inversion) found


                                    s                        frac. trans.

      isym =  1     identity                                     

 cryst.   s( 1) = (     1          0          0      )
                  (     0          1          0      )
                  (     0          0          1      )

 cart.    s( 1) = (  1.0000000  0.0000000  0.0000000 )
                  (  0.0000000  1.0000000  0.0000000 )
                  (  0.0000000  0.0000000  1.0000000 )


      isym =  2     inv. 180 deg rotation - cart. axis [1,0,1]   

 cryst.   s( 2) = (     1          0          0      )
                  (     0          0          1      )
                  (     0          1          0      )

 cart.    s( 2) = (  0.0000000  0.0000000 -1.0000000 )
                  (  0.0000000  1.0000000  0.0000000 )
                  ( -1.0000000  0.0000000  0.0000000 )


   Cartesian axes

     site n.     atom                  positions (alat units)
         1           Si  tau(   1) = (  -0.0009666   0.0000000   0.0009666  )
         2           Si  tau(   2) = (  -0.3535534   0.0000000   0.3535534  )
         3           Si  tau(   3) = (   0.0000000   0.3535534   0.3535534  )
         4           Si  tau(   4) = (  -0.3535534   0.3535534   0.7071068  )
         5           Si  tau(   5) = (  -0.3535534   0.3535534   0.0000000  )
         6           Si  tau(   6) = (  -0.7071068   0.3535534   0.3535534  )
         7           Si  tau(   7) = (  -0.3535534   0.7071068   0.3535534  )
         8           Si  tau(   8) = (  -0.7071068   0.7071068   0.7071068  )
         9           Si  tau(   9) = (  -0.5303301   0.5303301   0.5303301  )
        10           Si  tau(  10) = (  -0.8838835   0.5303301   0.8838835  )
        11           Si  tau(  11) = (  -0.5303301   0.8838835   0.8838835  )
        12           Si  tau(  12) = (  -0.8838835   0.8838835   1.2374369  )
        13           Si  tau(  13) = (  -0.8838835   0.8838835   0.5303301  )
        14           Si  tau(  14) = (  -1.2374369   0.8838835   0.8838835  )
        15           Si  tau(  15) = (  -0.8838835   1.2374369   0.8838835  )
        16           Si  tau(  16) = (  -1.2374369   1.2374369   1.2374369  )

   Crystallographic axes

     site n.     atom                  positions (cryst. coord.)
         1           Si  tau(   1) = (  0.0013669  0.0000000  0.0000000  )
         2           Si  tau(   2) = (  0.5000000  0.0000000  0.0000000  )
         3           Si  tau(   3) = (  0.0000000  0.5000000  0.0000000  )
         4           Si  tau(   4) = (  0.5000000  0.5000000  0.0000000  )
         5           Si  tau(   5) = (  0.0000000  0.0000000  0.5000000  )
         6           Si  tau(   6) = (  0.5000000  0.0000000  0.5000000  )
         7           Si  tau(   7) = (  0.0000000  0.5000000  0.5000000  )
         8           Si  tau(   8) = (  0.5000000  0.5000000  0.5000000  )
         9           Si  tau(   9) = (  0.3750000  0.3750000  0.3750000  )
        10           Si  tau(  10) = (  0.8750000  0.3750000  0.3750000  )
        11           Si  tau(  11) = (  0.3750000  0.8750000  0.3750000  )
        12           Si  tau(  12) = (  0.8750000  0.8750000  0.3750000  )
        13           Si  tau(  13) = (  0.3750000  0.3750000  0.8750000  )
        14           Si  tau(  14) = (  0.8750000  0.3750000  0.8750000  )
        15           Si  tau(  15) = (  0.3750000  0.8750000  0.8750000  )
        16           Si  tau(  16) = (  0.8750000  0.8750000  0.8750000  )

     number of k points=   141
                       cart. coord. in units 2pi/alat
        k(    1) = (  -0.0707107   0.0707107   0.0707107), wk =   0.0080000
        k(    2) = (  -0.2121320   0.2121320  -0.0707107), wk =   0.0160000
        k(    3) = (   0.3535534  -0.3535534   0.4949747), wk =   0.0160000
        k(    4) = (   0.2121320  -0.2121320   0.3535534), wk =   0.0160000
        k(    5) = (   0.0707107  -0.0707107   0.2121320), wk =   0.0160000
        k(    6) = (  -0.0707107   0.3535534   0.0707107), wk =   0.0080000
        k(    7) = (   0.4949747  -0.2121320   0.6363961), wk =   0.0160000
        k(    8) = (   0.3535534  -0.0707107   0.4949747), wk =   0.0160000
        k(    9) = (   0.2121320   0.0707107   0.3535534), wk =   0.0160000
        k(   10) = (  -0.0707107  -0.7778175   0.0707107), wk =   0.0080000
        k(   11) = (  -0.2121320  -0.6363961  -0.0707107), wk =   0.0160000
        k(   12) = (  -0.3535534  -0.4949747  -0.2121320), wk =   0.0160000
        k(   13) = (  -0.0707107  -0.4949747   0.0707107), wk =   0.0080000
        k(   14) = (  -0.2121320   0.2121320   0.2121320), wk =   0.0080000
        k(   15) = (   0.3535534  -0.3535534   0.7778175), wk =   0.0160000
        k(   16) = (   0.2121320  -0.2121320   0.6363961), wk =   0.0160000
        k(   17) = (  -0.2121320  -0.9192388   0.2121320), wk =   0.0080000
        k(   18) = (  -0.3535534  -0.7778175   0.0707107), wk =   0.0160000
        k(   19) = (   0.3535534  -0.3535534  -0.3535534), wk =   0.0040000
        k(   20) = (   0.0707107   0.0707107  -0.0707107), wk =   0.0080000
        k(   21) = (  -0.0707107  -0.0707107  -0.0707107), wk =   0.0160000
        k(   22) = (   0.2121320   0.2121320   0.0707107), wk =   0.0160000
        k(   23) = (  -0.2121320  -0.2121320   0.0707107), wk =   0.0160000
        k(   24) = (  -0.2121320   0.2121320   0.0707107), wk =   0.0160000
        k(   25) = (   0.2121320  -0.0707107   0.2121320), wk =   0.0160000
        k(   26) = (   0.2121320   0.0707107  -0.2121320), wk =   0.0080000
        k(   27) = (  -0.2121320   0.0707107   0.2121320), wk =   0.0080000
        k(   28) = (  -0.3535534  -0.3535534  -0.4949747), wk =   0.0160000
        k(   29) = (   0.3535534   0.3535534  -0.4949747), wk =   0.0160000
        k(   30) = (   0.3535534  -0.3535534  -0.4949747), wk =   0.0160000
        k(   31) = (  -0.3535534   0.4949747  -0.3535534), wk =   0.0160000
        k(   32) = (  -0.3535534  -0.4949747   0.3535534), wk =   0.0080000
        k(   33) = (   0.3535534  -0.4949747  -0.3535534), wk =   0.0080000
        k(   34) = (  -0.2121320  -0.2121320  -0.3535534), wk =   0.0160000
        k(   35) = (   0.2121320   0.2121320  -0.3535534), wk =   0.0160000
        k(   36) = (   0.2121320  -0.2121320  -0.3535534), wk =   0.0160000
        k(   37) = (  -0.2121320   0.3535534  -0.2121320), wk =   0.0160000
        k(   38) = (  -0.2121320  -0.3535534   0.2121320), wk =   0.0080000
        k(   39) = (   0.2121320  -0.3535534  -0.2121320), wk =   0.0080000
        k(   40) = (  -0.0707107  -0.0707107  -0.2121320), wk =   0.0160000
        k(   41) = (   0.0707107   0.0707107  -0.2121320), wk =   0.0160000
        k(   42) = (   0.0707107  -0.0707107  -0.2121320), wk =   0.0160000
        k(   43) = (  -0.0707107   0.2121320  -0.0707107), wk =   0.0160000
        k(   44) = (  -0.0707107  -0.2121320   0.0707107), wk =   0.0080000
        k(   45) = (   0.0707107  -0.2121320  -0.0707107), wk =   0.0080000
        k(   46) = (   0.0707107   0.3535534  -0.0707107), wk =   0.0080000
        k(   47) = (  -0.0707107  -0.3535534  -0.0707107), wk =   0.0160000
        k(   48) = (   0.3535534  -0.0707107  -0.0707107), wk =   0.0160000
        k(   49) = (  -0.3535534   0.0707107  -0.0707107), wk =   0.0160000
        k(   50) = (   0.3535534   0.0707107   0.0707107), wk =   0.0160000
        k(   51) = (  -0.3535534  -0.0707107   0.0707107), wk =   0.0160000
        k(   52) = (  -0.4949747  -0.2121320  -0.6363961), wk =   0.0160000
        k(   53) = (   0.4949747   0.2121320  -0.6363961), wk =   0.0160000
        k(   54) = (  -0.2121320   0.4949747  -0.6363961), wk =   0.0160000
        k(   55) = (   0.2121320  -0.4949747  -0.6363961), wk =   0.0160000
        k(   56) = (  -0.2121320  -0.4949747   0.6363961), wk =   0.0160000
        k(   57) = (   0.2121320   0.4949747   0.6363961), wk =   0.0160000
        k(   58) = (   0.6363961  -0.2121320  -0.4949747), wk =   0.0160000
        k(   59) = (  -0.4949747   0.6363961  -0.2121320), wk =   0.0160000
        k(   60) = (  -0.4949747  -0.6363961   0.2121320), wk =   0.0160000
        k(   61) = (   0.4949747   0.6363961   0.2121320), wk =   0.0160000
        k(   62) = (   0.4949747  -0.6363961  -0.2121320), wk =   0.0160000
        k(   63) = (  -0.3535534  -0.0707107  -0.4949747), wk =   0.0160000
        k(   64) = (   0.3535534   0.0707107  -0.4949747), wk =   0.0160000
        k(   65) = (  -0.0707107   0.3535534  -0.4949747), wk =   0.0160000
        k(   66) = (   0.0707107  -0.3535534  -0.4949747), wk =   0.0160000
        k(   67) = (  -0.0707107  -0.3535534   0.4949747), wk =   0.0160000
        k(   68) = (   0.0707107   0.3535534   0.4949747), wk =   0.0160000
        k(   69) = (   0.4949747  -0.0707107  -0.3535534), wk =   0.0160000
        k(   70) = (  -0.3535534   0.4949747  -0.0707107), wk =   0.0160000
        k(   71) = (  -0.3535534  -0.4949747   0.0707107), wk =   0.0160000
        k(   72) = (   0.3535534   0.4949747   0.0707107), wk =   0.0160000
        k(   73) = (   0.3535534  -0.4949747  -0.0707107), wk =   0.0160000
        k(   74) = (  -0.2121320   0.0707107  -0.3535534), wk =   0.0160000
        k(   75) = (   0.2121320  -0.0707107  -0.3535534), wk =   0.0160000
        k(   76) = (   0.0707107   0.2121320  -0.3535534), wk =   0.0160000
        k(   77) = (  -0.0707107  -0.2121320  -0.3535534), wk =   0.0160000
        k(   78) = (   0.0707107  -0.2121320   0.3535534), wk =   0.0160000
        k(   79) = (  -0.0707107   0.2121320   0.3535534), wk =   0.0160000
        k(   80) = (   0.3535534   0.0707107  -0.2121320), wk =   0.0160000
        k(   81) = (  -0.2121320   0.3535534   0.0707107), wk =   0.0160000
        k(   82) = (  -0.2121320  -0.3535534  -0.0707107), wk =   0.0160000
        k(   83) = (   0.2121320   0.3535534  -0.0707107), wk =   0.0160000
        k(   84) = (   0.2121320  -0.3535534   0.0707107), wk =   0.0160000
        k(   85) = (   0.0707107  -0.7778175  -0.0707107), wk =   0.0080000
        k(   86) = (  -0.0707107   0.7778175  -0.0707107), wk =   0.0160000
        k(   87) = (  -0.7778175  -0.0707107  -0.0707107), wk =   0.0160000
        k(   88) = (   0.7778175   0.0707107  -0.0707107), wk =   0.0160000
        k(   89) = (  -0.7778175   0.0707107   0.0707107), wk =   0.0160000
        k(   90) = (   0.7778175  -0.0707107   0.0707107), wk =   0.0160000
        k(   91) = (   0.2121320  -0.6363961   0.0707107), wk =   0.0160000
        k(   92) = (  -0.2121320   0.6363961   0.0707107), wk =   0.0160000
        k(   93) = (  -0.6363961  -0.2121320   0.0707107), wk =   0.0160000
        k(   94) = (   0.6363961   0.2121320   0.0707107), wk =   0.0160000
        k(   95) = (  -0.6363961   0.2121320  -0.0707107), wk =   0.0160000
        k(   96) = (   0.6363961  -0.2121320  -0.0707107), wk =   0.0160000
        k(   97) = (  -0.0707107  -0.6363961   0.2121320), wk =   0.0160000
        k(   98) = (   0.2121320  -0.0707107  -0.6363961), wk =   0.0160000
        k(   99) = (   0.2121320   0.0707107   0.6363961), wk =   0.0160000
        k(  100) = (  -0.2121320  -0.0707107   0.6363961), wk =   0.0160000
        k(  101) = (  -0.2121320   0.0707107  -0.6363961), wk =   0.0160000
        k(  102) = (   0.3535534  -0.4949747   0.2121320), wk =   0.0160000
        k(  103) = (  -0.3535534   0.4949747   0.2121320), wk =   0.0160000
        k(  104) = (  -0.4949747  -0.3535534   0.2121320), wk =   0.0080000
        k(  105) = (   0.4949747   0.3535534   0.2121320), wk =   0.0160000
        k(  106) = (   0.4949747  -0.3535534  -0.2121320), wk =   0.0080000
        k(  107) = (  -0.2121320  -0.4949747   0.3535534), wk =   0.0160000
        k(  108) = (   0.0707107  -0.4949747  -0.0707107), wk =   0.0080000
        k(  109) = (  -0.0707107   0.4949747  -0.0707107), wk =   0.0160000
        k(  110) = (  -0.4949747  -0.0707107  -0.0707107), wk =   0.0160000
        k(  111) = (   0.4949747   0.0707107  -0.0707107), wk =   0.0160000
        k(  112) = (  -0.4949747   0.0707107   0.0707107), wk =   0.0160000
        k(  113) = (   0.4949747  -0.0707107   0.0707107), wk =   0.0160000
        k(  114) = (   0.2121320   0.2121320  -0.2121320), wk =   0.0080000
        k(  115) = (  -0.2121320  -0.2121320  -0.2121320), wk =   0.0160000
        k(  116) = (  -0.3535534  -0.3535534  -0.7778175), wk =   0.0160000
        k(  117) = (   0.3535534   0.3535534  -0.7778175), wk =   0.0160000
        k(  118) = (   0.3535534  -0.3535534  -0.7778175), wk =   0.0160000
        k(  119) = (  -0.3535534   0.7778175  -0.3535534), wk =   0.0160000
        k(  120) = (  -0.3535534  -0.7778175   0.3535534), wk =   0.0080000
        k(  121) = (   0.3535534  -0.7778175  -0.3535534), wk =   0.0080000
        k(  122) = (  -0.2121320  -0.2121320  -0.6363961), wk =   0.0160000
        k(  123) = (   0.2121320   0.2121320  -0.6363961), wk =   0.0160000
        k(  124) = (   0.2121320  -0.2121320  -0.6363961), wk =   0.0160000
        k(  125) = (  -0.2121320   0.6363961  -0.2121320), wk =   0.0160000
        k(  126) = (  -0.2121320  -0.6363961   0.2121320), wk =   0.0080000
        k(  127) = (   0.2121320  -0.6363961  -0.2121320), wk =   0.0080000
        k(  128) = (   0.2121320  -0.9192388  -0.2121320), wk =   0.0080000
        k(  129) = (  -0.2121320   0.9192388  -0.2121320), wk =   0.0160000
        k(  130) = (  -0.9192388  -0.2121320  -0.2121320), wk =   0.0160000
        k(  131) = (   0.9192388   0.2121320  -0.2121320), wk =   0.0160000
        k(  132) = (  -0.9192388   0.2121320   0.2121320), wk =   0.0160000
        k(  133) = (   0.9192388  -0.2121320   0.2121320), wk =   0.0160000
        k(  134) = (   0.3535534  -0.7778175  -0.0707107), wk =   0.0160000
        k(  135) = (  -0.3535534   0.7778175  -0.0707107), wk =   0.0160000
        k(  136) = (  -0.7778175  -0.3535534  -0.0707107), wk =   0.0080000
        k(  137) = (   0.7778175   0.3535534  -0.0707107), wk =   0.0160000
        k(  138) = (   0.7778175  -0.3535534   0.0707107), wk =   0.0080000
        k(  139) = (   0.0707107  -0.7778175   0.3535534), wk =   0.0160000
        k(  140) = (  -0.3535534  -0.3535534   0.3535534), wk =   0.0040000
        k(  141) = (   0.3535534   0.3535534   0.3535534), wk =   0.0080000

                       cryst. coord.
        k(    1) = (   0.1000000   0.1000000   0.1000000), wk =   0.0080000
        k(    2) = (   0.1000000   0.1000000   0.3000000), wk =   0.0160000
        k(    3) = (   0.1000000   0.1000000  -0.5000000), wk =   0.0160000
        k(    4) = (   0.1000000   0.1000000  -0.3000000), wk =   0.0160000
        k(    5) = (   0.1000000   0.1000000  -0.1000000), wk =   0.0160000
        k(    6) = (   0.1000000   0.3000000   0.3000000), wk =   0.0080000
        k(    7) = (   0.1000000   0.3000000  -0.5000000), wk =   0.0160000
        k(    8) = (   0.1000000   0.3000000  -0.3000000), wk =   0.0160000
        k(    9) = (   0.1000000   0.3000000  -0.1000000), wk =   0.0160000
        k(   10) = (   0.1000000  -0.5000000  -0.5000000), wk =   0.0080000
        k(   11) = (   0.1000000  -0.5000000  -0.3000000), wk =   0.0160000
        k(   12) = (   0.1000000  -0.5000000  -0.1000000), wk =   0.0160000
        k(   13) = (   0.1000000  -0.3000000  -0.3000000), wk =   0.0080000
        k(   14) = (   0.3000000   0.3000000   0.3000000), wk =   0.0080000
        k(   15) = (   0.3000000   0.3000000  -0.5000000), wk =   0.0160000
        k(   16) = (   0.3000000   0.3000000  -0.3000000), wk =   0.0160000
        k(   17) = (   0.3000000  -0.5000000  -0.5000000), wk =   0.0080000
        k(   18) = (   0.3000000  -0.5000000  -0.3000000), wk =   0.0160000
        k(   19) = (  -0.5000000  -0.5000000  -0.5000000), wk =   0.0040000
        k(   20) = (  -0.1000000   0.0000000   0.0000000), wk =   0.0080000
        k(   21) = (   0.0000000  -0.1000000   0.0000000), wk =   0.0160000
        k(   22) = (  -0.1000000   0.2000000   0.0000000), wk =   0.0160000
        k(   23) = (   0.2000000  -0.1000000   0.0000000), wk =   0.0160000
        k(   24) = (   0.2000000   0.2000000   0.3000000), wk =   0.0160000
        k(   25) = (   0.0000000   0.1000000  -0.2000000), wk =   0.0160000
        k(   26) = (  -0.3000000  -0.1000000  -0.1000000), wk =   0.0080000
        k(   27) = (   0.3000000   0.2000000   0.2000000), wk =   0.0080000
        k(   28) = (  -0.1000000  -0.6000000   0.0000000), wk =   0.0160000
        k(   29) = (  -0.6000000  -0.1000000   0.0000000), wk =   0.0160000
        k(   30) = (  -0.6000000  -0.6000000  -0.5000000), wk =   0.0160000
        k(   31) = (   0.0000000   0.1000000   0.6000000), wk =   0.0160000
        k(   32) = (   0.5000000  -0.1000000  -0.1000000), wk =   0.0080000
        k(   33) = (  -0.5000000  -0.6000000  -0.6000000), wk =   0.0080000
        k(   34) = (  -0.1000000  -0.4000000   0.0000000), wk =   0.0160000
        k(   35) = (  -0.4000000  -0.1000000   0.0000000), wk =   0.0160000
        k(   36) = (  -0.4000000  -0.4000000  -0.3000000), wk =   0.0160000
        k(   37) = (   0.0000000   0.1000000   0.4000000), wk =   0.0160000
        k(   38) = (   0.3000000  -0.1000000  -0.1000000), wk =   0.0080000
        k(   39) = (  -0.3000000  -0.4000000  -0.4000000), wk =   0.0080000
        k(   40) = (  -0.1000000  -0.2000000   0.0000000), wk =   0.0160000
        k(   41) = (  -0.2000000  -0.1000000   0.0000000), wk =   0.0160000
        k(   42) = (  -0.2000000  -0.2000000  -0.1000000), wk =   0.0160000
        k(   43) = (   0.0000000   0.1000000   0.2000000), wk =   0.0160000
        k(   44) = (   0.1000000  -0.1000000  -0.1000000), wk =   0.0080000
        k(   45) = (  -0.1000000  -0.2000000  -0.2000000), wk =   0.0080000
        k(   46) = (  -0.1000000   0.2000000   0.2000000), wk =   0.0080000
        k(   47) = (   0.0000000  -0.3000000  -0.2000000), wk =   0.0160000
        k(   48) = (  -0.3000000  -0.1000000  -0.3000000), wk =   0.0160000
        k(   49) = (   0.2000000   0.0000000   0.3000000), wk =   0.0160000
        k(   50) = (  -0.2000000   0.1000000  -0.2000000), wk =   0.0160000
        k(   51) = (   0.3000000   0.0000000   0.2000000), wk =   0.0160000
        k(   52) = (  -0.1000000  -0.6000000   0.2000000), wk =   0.0160000
        k(   53) = (  -0.8000000  -0.3000000  -0.2000000), wk =   0.0160000
        k(   54) = (  -0.3000000  -0.1000000   0.5000000), wk =   0.0160000
        k(   55) = (  -0.6000000  -0.8000000  -0.5000000), wk =   0.0160000
        k(   56) = (   0.6000000   0.1000000  -0.2000000), wk =   0.0160000
        k(   57) = (   0.3000000   0.8000000   0.2000000), wk =   0.0160000
        k(   58) = (  -0.8000000  -0.5000000  -0.6000000), wk =   0.0160000
        k(   59) = (   0.2000000   0.3000000   0.8000000), wk =   0.0160000
        k(   60) = (   0.5000000  -0.3000000  -0.1000000), wk =   0.0160000
        k(   61) = (  -0.2000000   0.6000000   0.1000000), wk =   0.0160000
        k(   62) = (  -0.5000000  -0.6000000  -0.8000000), wk =   0.0160000
        k(   63) = (  -0.1000000  -0.4000000   0.2000000), wk =   0.0160000
        k(   64) = (  -0.6000000  -0.3000000  -0.2000000), wk =   0.0160000
        k(   65) = (  -0.3000000  -0.1000000   0.3000000), wk =   0.0160000
        k(   66) = (  -0.4000000  -0.6000000  -0.3000000), wk =   0.0160000
        k(   67) = (   0.4000000   0.1000000  -0.2000000), wk =   0.0160000
        k(   68) = (   0.3000000   0.6000000   0.2000000), wk =   0.0160000
        k(   69) = (  -0.6000000  -0.3000000  -0.4000000), wk =   0.0160000
        k(   70) = (   0.2000000   0.3000000   0.6000000), wk =   0.0160000
        k(   71) = (   0.3000000  -0.3000000  -0.1000000), wk =   0.0160000
        k(   72) = (  -0.2000000   0.4000000   0.1000000), wk =   0.0160000
        k(   73) = (  -0.3000000  -0.4000000  -0.6000000), wk =   0.0160000
        k(   74) = (  -0.1000000  -0.2000000   0.2000000), wk =   0.0160000
        k(   75) = (  -0.4000000  -0.3000000  -0.2000000), wk =   0.0160000
        k(   76) = (  -0.3000000  -0.1000000   0.1000000), wk =   0.0160000
        k(   77) = (  -0.2000000  -0.4000000  -0.1000000), wk =   0.0160000
        k(   78) = (   0.2000000   0.1000000  -0.2000000), wk =   0.0160000
        k(   79) = (   0.3000000   0.4000000   0.2000000), wk =   0.0160000
        k(   80) = (  -0.4000000  -0.1000000  -0.2000000), wk =   0.0160000
        k(   81) = (   0.2000000   0.3000000   0.4000000), wk =   0.0160000
        k(   82) = (   0.1000000  -0.3000000  -0.1000000), wk =   0.0160000
        k(   83) = (  -0.2000000   0.2000000   0.1000000), wk =   0.0160000
        k(   84) = (  -0.1000000  -0.2000000  -0.4000000), wk =   0.0160000
        k(   85) = (  -0.1000000  -0.6000000  -0.6000000), wk =   0.0080000
        k(   86) = (   0.0000000   0.5000000   0.6000000), wk =   0.0160000
        k(   87) = (   0.5000000  -0.1000000   0.5000000), wk =   0.0160000
        k(   88) = (  -0.6000000   0.0000000  -0.5000000), wk =   0.0160000
        k(   89) = (   0.6000000   0.1000000   0.6000000), wk =   0.0160000
        k(   90) = (  -0.5000000   0.0000000  -0.6000000), wk =   0.0160000
        k(   91) = (  -0.1000000  -0.4000000  -0.6000000), wk =   0.0160000
        k(   92) = (   0.2000000   0.5000000   0.6000000), wk =   0.0160000
        k(   93) = (   0.5000000  -0.1000000   0.3000000), wk =   0.0160000
        k(   94) = (  -0.4000000   0.2000000  -0.3000000), wk =   0.0160000
        k(   95) = (   0.4000000   0.1000000   0.6000000), wk =   0.0160000
        k(   96) = (  -0.5000000  -0.2000000  -0.6000000), wk =   0.0160000
        k(   97) = (   0.2000000  -0.3000000  -0.4000000), wk =   0.0160000
        k(   98) = (  -0.6000000  -0.5000000  -0.2000000), wk =   0.0160000
        k(   99) = (   0.3000000   0.5000000  -0.1000000), wk =   0.0160000
        k(  100) = (   0.6000000   0.4000000   0.1000000), wk =   0.0160000
        k(  101) = (  -0.3000000  -0.4000000   0.2000000), wk =   0.0160000
        k(  102) = (  -0.1000000  -0.2000000  -0.6000000), wk =   0.0160000
        k(  103) = (   0.4000000   0.5000000   0.6000000), wk =   0.0160000
        k(  104) = (   0.5000000  -0.1000000   0.1000000), wk =   0.0080000
        k(  105) = (  -0.2000000   0.4000000  -0.1000000), wk =   0.0160000
        k(  106) = (  -0.5000000  -0.4000000  -0.6000000), wk =   0.0080000
        k(  107) = (   0.4000000  -0.1000000  -0.2000000), wk =   0.0160000
        k(  108) = (  -0.1000000  -0.4000000  -0.4000000), wk =   0.0080000
        k(  109) = (   0.0000000   0.3000000   0.4000000), wk =   0.0160000
        k(  110) = (   0.3000000  -0.1000000   0.3000000), wk =   0.0160000
        k(  111) = (  -0.4000000   0.0000000  -0.3000000), wk =   0.0160000
        k(  112) = (   0.4000000   0.1000000   0.4000000), wk =   0.0160000
        k(  113) = (  -0.3000000   0.0000000  -0.4000000), wk =   0.0160000
        k(  114) = (  -0.3000000   0.0000000   0.0000000), wk =   0.0080000
        k(  115) = (   0.0000000  -0.3000000   0.0000000), wk =   0.0160000
        k(  116) = (  -0.3000000  -0.8000000   0.0000000), wk =   0.0160000
        k(  117) = (  -0.8000000  -0.3000000   0.0000000), wk =   0.0160000
        k(  118) = (  -0.8000000  -0.8000000  -0.5000000), wk =   0.0160000
        k(  119) = (   0.0000000   0.3000000   0.8000000), wk =   0.0160000
        k(  120) = (   0.5000000  -0.3000000  -0.3000000), wk =   0.0080000
        k(  121) = (  -0.5000000  -0.8000000  -0.8000000), wk =   0.0080000
        k(  122) = (  -0.3000000  -0.6000000   0.0000000), wk =   0.0160000
        k(  123) = (  -0.6000000  -0.3000000   0.0000000), wk =   0.0160000
        k(  124) = (  -0.6000000  -0.6000000  -0.3000000), wk =   0.0160000
        k(  125) = (   0.0000000   0.3000000   0.6000000), wk =   0.0160000
        k(  126) = (   0.3000000  -0.3000000  -0.3000000), wk =   0.0080000
        k(  127) = (  -0.3000000  -0.6000000  -0.6000000), wk =   0.0080000
        k(  128) = (  -0.3000000  -0.8000000  -0.8000000), wk =   0.0080000
        k(  129) = (   0.0000000   0.5000000   0.8000000), wk =   0.0160000
        k(  130) = (   0.5000000  -0.3000000   0.5000000), wk =   0.0160000
        k(  131) = (  -0.8000000   0.0000000  -0.5000000), wk =   0.0160000
        k(  132) = (   0.8000000   0.3000000   0.8000000), wk =   0.0160000
        k(  133) = (  -0.5000000   0.0000000  -0.8000000), wk =   0.0160000
        k(  134) = (  -0.3000000  -0.6000000  -0.8000000), wk =   0.0160000
        k(  135) = (   0.2000000   0.5000000   0.8000000), wk =   0.0160000
        k(  136) = (   0.5000000  -0.3000000   0.3000000), wk =   0.0080000
        k(  137) = (  -0.6000000   0.2000000  -0.3000000), wk =   0.0160000
        k(  138) = (  -0.5000000  -0.2000000  -0.8000000), wk =   0.0080000
        k(  139) = (   0.2000000  -0.3000000  -0.6000000), wk =   0.0160000
        k(  140) = (   0.5000000   0.0000000   0.0000000), wk =   0.0040000
        k(  141) = (   0.0000000   0.5000000   0.0000000), wk =   0.0080000

     Dense  grid:    37461 G-vectors     FFT dimensions: (  48,  48,  48)

     Dynamical RAM for                 wfc:       2.28 MB

     Dynamical RAM for     wfc (w. buffer):     324.15 MB

     Dynamical RAM for           str. fact:       0.57 MB

     Dynamical RAM for           local pot:       0.00 MB

     Dynamical RAM for          nlocal pot:       5.71 MB

     Dynamical RAM for                qrad:       0.14 MB

     Dynamical RAM for          rho,v,vnew:       4.25 MB

     Dynamical RAM for               rhoin:       1.42 MB

     Dynamical RAM for            rho*nmix:       9.15 MB

     Dynamical RAM for           G-vectors:       2.43 MB

     Dynamical RAM for          h,s,v(r/c):       0.19 MB

     Dynamical RAM for          <psi|beta>:       0.04 MB

     Dynamical RAM for                 psi:       4.57 MB

     Dynamical RAM for                hpsi:       4.57 MB

     Dynamical RAM for      wfcinit/wfcrot:       9.23 MB

     Estimated static dynamical RAM per process >     353.16 MB

     Estimated max dynamical RAM per process >     362.52 MB

     Initial potential from superposition of free atoms

     starting charge   63.99115, renormalised to   64.00000
     Starting wfcs are   64 randomized atomic wfcs

     total cpu time spent up to now is       36.5 secs

     Self-consistent Calculation

     iteration #  1     ecut=    25.00 Ry     beta= 0.70
     Davidson diagonalization with overlap
     ethr =  1.00E-02,  avg # of iterations =  2.0

     Threshold (ethr) on eigenvalues was too large:
     Diagonalizing with lowered threshold

     Davidson diagonalization with overlap
     ethr =  5.68E-04,  avg # of iterations =  2.0

     total cpu time spent up to now is      161.6 secs

     total energy              =    -125.91502272 Ry
     estimated scf accuracy    <       0.42749447 Ry

     iteration #  2     ecut=    25.00 Ry     beta= 0.70
     Davidson diagonalization with overlap
     ethr =  6.68E-04,  avg # of iterations =  1.0

     total cpu time spent up to now is      208.9 secs

     total energy              =    -125.92863844 Ry
     estimated scf accuracy    <       0.02456451 Ry

     iteration #  3     ecut=    25.00 Ry     beta= 0.70
     Davidson diagonalization with overlap
     ethr =  3.84E-05,  avg # of iterations =  2.4

     total cpu time spent up to now is      276.6 secs

     total energy              =    -125.93332511 Ry
     estimated scf accuracy    <       0.00072182 Ry

     iteration #  4     ecut=    25.00 Ry     beta= 0.70
     Davidson diagonalization with overlap
     ethr =  1.13E-06,  avg # of iterations =  5.7

     total cpu time spent up to now is      379.9 secs

     total energy              =    -125.93390615 Ry
     estimated scf accuracy    <       0.00003897 Ry

     iteration #  5     ecut=    25.00 Ry     beta= 0.70
     Davidson diagonalization with overlap
     ethr =  6.09E-08,  avg # of iterations =  5.1

     total cpu time spent up to now is      471.1 secs

     total energy              =    -125.93392617 Ry
     estimated scf accuracy    <       0.00000211 Ry

     iteration #  6     ecut=    25.00 Ry     beta= 0.70
     Davidson diagonalization with overlap
     ethr =  3.29E-09,  avg # of iterations =  5.2

     total cpu time spent up to now is      564.7 secs

     total energy              =    -125.93392733 Ry
     estimated scf accuracy    <       0.00000048 Ry

     iteration #  7     ecut=    25.00 Ry     beta= 0.70
     Davidson diagonalization with overlap
     ethr =  7.43E-10,  avg # of iterations =  2.8

     total cpu time spent up to now is      635.0 secs

     End of self-consistent calculation

          k =-0.0707 0.0707 0.0707 (  4684 PWs)   bands (ev):

    -5.7289  -3.6183  -3.4760  -3.4734  -3.4687  -2.0732  -2.0700  -2.0665
    -1.3223  -1.3189  -1.3158  -0.8160  -0.8105  -0.8096  -0.6523   3.0685
     3.0699   3.0731   3.2187   3.2211   3.2216   4.5674   4.5695   4.5777
     4.7320   4.7362   4.7373   4.8173   4.8218   5.6291   5.9172   5.9229

     occupation numbers 
     1.0000   1.0000   1.0000   1.0000   1.0000   1.0000   1.0000   1.0000
     1.0000   1.0000   1.0000   1.0000   1.0000   1.0000   1.0000   1.0000
     1.0000   1.0000   1.0000   1.0000   1.0000   1.0000   1.0000   1.0000
     1.0000   1.0000   1.0000   1.0000   1.0000   1.0000   1.0000   1.0000

          k =-0.2121 0.2121-0.0707 (  4693 PWs)   bands (ev):

    -5.5584  -4.0166  -3.6987  -3.3045  -3.2992  -2.7182  -2.7133  -2.0391
    -1.2687  -0.7414  -0.7357  -0.5489  -0.5445  -0.3020   0.0517   2.3762
     2.8536   2.8555   3.2310   3.2348   3.3554   3.6010   3.6065   4.1682
     4.4348   4.4380   4.5043   4.5260   4.7431   4.7564   5.3684   5.8437

     occupation numbers 
     1.0000   1.0000   1.0000   1.0000   1.0000   1.0000   1.0000   1.0000
     1.0000   1.0000   1.0000   1.0000   1.0000   1.0000   1.0000   1.0000
     1.0000   1.0000   1.0000   1.0000   1.0000   1.0000   1.0000   1.0000
     1.0000   1.0000   1.0000   1.0000   1.0000   1.0000   1.0000   1.0000

          k = 0.3536-0.3536 0.4950 (  4669 PWs)   bands (ev):

    -5.1406  -4.7383  -3.5948  -3.1799  -3.1749  -3.0250  -3.0197  -2.6062
    -0.7036  -0.5264  -0.5212  -0.0675  -0.0628   0.1254   1.5569   2.0763
     2.5638   2.5671   2.5746   2.5761   2.7164   3.1474   3.6035   3.6080
     3.6880   3.8970   3.8998   4.0255   4.9094   4.9437   5.0669   5.5021

     occupation numbers 
     1.0000   1.0000   1.0000   1.0000   1.0000   1.0000   1.0000   1.0000
     1.0000   1.0000   1.0000   1.0000   1.0000   1.0000   1.0000   1.0000
     1.0000   1.0000   1.0000   1.0000   1.0000   1.0000   1.0000   1.0000
     1.0000   1.0000   1.0000   1.0000   1.0000   1.0000   1.0000   1.0000

          k = 0.2121-0.2121 0.3536 (  4669 PWs)   bands (ev):

    -5.3059  -4.5079  -3.4462  -3.4411  -3.2849  -3.0509  -2.6108  -2.6059
    -0.6713  -0.6457  -0.6407  -0.2444  -0.2392   0.1276   1.0167   2.2394
     2.2413   2.7456   2.7824   3.1773   3.1801   3.3195   3.4268   3.4296
     3.5787   4.1403   4.1463   4.1643   4.6585   5.1429   5.2232   5.4531

     occupation numbers 
     1.0000   1.0000   1.0000   1.0000   1.0000   1.0000   1.0000   1.0000
     1.0000   1.0000   1.0000   1.0000   1.0000   1.0000   1.0000   1.0000
     1.0000   1.0000   1.0000   1.0000   1.0000   1.0000   1.0000   1.0000
     1.0000   1.0000   1.0000   1.0000   1.0000   1.0000   1.0000   1.0000

          k = 0.0707-0.0707 0.2121 (  4693 PWs)   bands (ev):

    -5.6434  -3.7826  -3.5333  -3.5280  -3.3905  -2.7671  -2.0396  -2.0349
    -1.3055  -1.3009  -0.7652  -0.6203  -0.6149  -0.5244  -0.3410   2.7610
     2.7633   3.1383   3.1411   3.1547   3.2970   3.9610   4.1658   4.1697
     4.5347   4.6403   4.6739   4.6821   4.8743   5.0781   5.6229   5.7576

     occupation numbers 
     1.0000   1.0000   1.0000   1.0000   1.0000   1.0000   1.0000   1.0000
     1.0000   1.0000   1.0000   1.0000   1.0000   1.0000   1.0000   1.0000
     1.0000   1.0000   1.0000   1.0000   1.0000   1.0000   1.0000   1.0000
     1.0000   1.0000   1.0000   1.0000   1.0000   1.0000   1.0000   1.0000

          k =-0.0707 0.3536 0.0707 (  4682 PWs)   bands (ev):

    -5.4729  -3.9354  -3.6165  -3.6164  -3.4024  -3.3648  -1.9807  -1.9807
    -1.2791  -1.2790  -0.5478  -0.2688  -0.2688   0.0927   0.3000   2.4400
     2.4416   2.9061   2.9079   3.2543   3.3213   3.4518   3.5429   3.5441
     3.9245   4.4005   4.5511   4.6215   4.6231   4.9088   5.1996   5.2976

     occupation numbers 
     1.0000   1.0000   1.0000   1.0000   1.0000   1.0000   1.0000   1.0000
     1.0000   1.0000   1.0000   1.0000   1.0000   1.0000   1.0000   1.0000
     1.0000   1.0000   1.0000   1.0000   1.0000   1.0000   1.0000   1.0000
     1.0000   1.0000   1.0000   1.0000   1.0000   1.0000   1.0000   1.0000

          k = 0.4950-0.2121 0.6364 (  4675 PWs)   bands (ev):

    -5.1364  -4.3425  -3.9615  -3.8997  -3.2919  -3.0470  -2.4888  -2.1109
    -1.0935  -0.6902  -0.4830  -0.2113   0.5757   0.9999   1.0498   1.8958
     2.2180   2.3220   2.5652   2.9157   3.1725   3.1754   3.2325   3.3007
     3.6596   3.7098   4.0776   4.1426   4.4706   4.4764   4.9713   5.1121

     occupation numbers 
     1.0000   1.0000   1.0000   1.0000   1.0000   1.0000   1.0000   1.0000
     1.0000   1.0000   1.0000   1.0000   1.0000   1.0000   1.0000   1.0000
     1.0000   1.0000   1.0000   1.0000   1.0000   1.0000   1.0000   1.0000
     1.0000   1.0000   1.0000   1.0000   1.0000   1.0000   1.0000   1.0000

          k = 0.3536-0.0707 0.4950 (  4662 PWs)   bands (ev):

    -4.9732  -4.5702  -4.1713  -3.7626  -3.0475  -2.8716  -2.7328  -2.3846
    -0.8662  -0.6727  -0.5244  -0.1273   0.7427   1.0219   1.5626   1.7496
     2.1318   2.2687   2.3259   2.6086   2.9168   3.3340   3.5467   3.5769
     3.6571   3.6647   3.7676   4.0344   4.0493   4.2703   4.7539   5.3715

     occupation numbers 
     1.0000   1.0000   1.0000   1.0000   1.0000   1.0000   1.0000   1.0000
     1.0000   1.0000   1.0000   1.0000   1.0000   1.0000   1.0000   1.0000
     1.0000   1.0000   1.0000   1.0000   1.0000   1.0000   1.0000   1.0000
     1.0000   1.0000   1.0000   1.0000   1.0000   1.0000   1.0000   1.0000

          k = 0.2121 0.0707 0.3536 (  4677 PWs)   bands (ev):

    -5.3890  -4.2082  -3.8488  -3.3402  -3.2820  -3.1345  -2.6205  -2.0536
    -1.2032  -0.6860  -0.5961  -0.5205   0.1111   0.2283   0.5306   2.0676
     2.5204   2.9386   3.0366   3.0537   3.1018   3.3416   3.4202   3.7807
     3.8503   4.2207   4.2638   4.2651   4.4791   4.8934   4.9319   5.5981

     occupation numbers 
     1.0000   1.0000   1.0000   1.0000   1.0000   1.0000   1.0000   1.0000
     1.0000   1.0000   1.0000   1.0000   1.0000   1.0000   1.0000   1.0000
     1.0000   1.0000   1.0000   1.0000   1.0000   1.0000   1.0000   1.0000
     1.0000   1.0000   1.0000   1.0000   1.0000   1.0000   1.0000   1.0000

          k =-0.0707-0.7778 0.0707 (  4685 PWs)   bands (ev):

    -4.8815  -4.4642  -4.1065  -3.7356  -3.7356  -3.3952  -1.8777  -1.8777
    -1.2450  -1.2449   0.1022   0.5142   0.5142   0.9884   1.9914   2.0574
     2.0580   2.1168   2.4212   2.4214   2.5252   2.5257   2.7553   2.8327
     3.9040   3.9767   4.3082   4.3388   4.4440   4.5535   4.5537   4.9201

     occupation numbers 
     1.0000   1.0000   1.0000   1.0000   1.0000   1.0000   1.0000   1.0000
     1.0000   1.0000   1.0000   1.0000   1.0000   1.0000   1.0000   1.0000
     1.0000   1.0000   1.0000   1.0000   1.0000   1.0000   1.0000   1.0000
     1.0000   1.0000   1.0000   1.0000   1.0000   1.0000   1.0000   1.0000

          k =-0.2121-0.6364-0.0707 (  4670 PWs)   bands (ev):

    -4.8020  -4.4114  -4.3890  -4.0197  -3.3086  -3.0134  -2.3470  -2.2070
    -0.9648  -0.8120  -0.2776   0.0650   0.9446   1.4839   1.7546   1.8725
     1.9093   1.9928   2.1715   2.4756   2.8038   2.8884   2.9959   3.1604
     3.6375   4.0054   4.0296   4.0836   4.0976   4.4689   4.5867   5.0092

     occupation numbers 
     1.0000   1.0000   1.0000   1.0000   1.0000   1.0000   1.0000   1.0000
     1.0000   1.0000   1.0000   1.0000   1.0000   1.0000   1.0000   1.0000
     1.0000   1.0000   1.0000   1.0000   1.0000   1.0000   1.0000   1.0000
     1.0000   1.0000   1.0000   1.0000   1.0000   1.0000   1.0000   1.0000

          k =-0.3536-0.4950-0.2121 (  4668 PWs)   bands (ev):

    -4.8945  -4.8944  -3.7075  -3.7008  -3.0376  -3.0321  -2.6389  -2.6337
    -0.7416  -0.7353  -0.2989  -0.2899   0.4834   0.4910   2.0477   2.0527
     2.1242   2.1252   2.4148   2.4194   3.0354   3.0372   3.5587   3.5631
     3.7419   3.7450   3.8763   3.8793   4.5052   4.5122   5.2397   5.2480

     occupation numbers 
     1.0000   1.0000   1.0000   1.0000   1.0000   1.0000   1.0000   1.0000
     1.0000   1.0000   1.0000   1.0000   1.0000   1.0000   1.0000   1.0000
     1.0000   1.0000   1.0000   1.0000   1.0000   1.0000   1.0000   1.0000
     1.0000   1.0000   1.0000   1.0000   1.0000   1.0000   1.0000   1.0000

          k =-0.0707-0.4950 0.0707 (  4674 PWs)   bands (ev):

    -5.2183  -4.0466  -3.9700  -3.6923  -3.6923  -3.3808  -1.9195  -1.9194
    -1.2563  -1.2561  -0.1980   0.1566   0.1567   0.5743   1.1464   2.1872
     2.1883   2.5798   2.6712   2.6723   2.8951   2.8957   3.2680   3.5687
     3.6346   3.6792   4.4823   4.5798   4.5808   4.7535   4.7933   4.9177

     occupation numbers 
     1.0000   1.0000   1.0000   1.0000   1.0000   1.0000   1.0000   1.0000
     1.0000   1.0000   1.0000   1.0000   1.0000   1.0000   1.0000   1.0000
     1.0000   1.0000   1.0000   1.0000   1.0000   1.0000   1.0000   1.0000
     1.0000   1.0000   1.0000   1.0000   1.0000   1.0000   1.0000   1.0000

          k =-0.2121 0.2121 0.2121 (  4705 PWs)   bands (ev):

    -5.4741  -4.2927  -3.3632  -3.3604  -3.3560  -2.6800  -2.6770  -2.6731
    -0.5843  -0.5790  -0.5771  -0.5593  -0.5552  -0.5541   0.5026   2.5099
     2.5109   2.5142   3.4286   3.4314   3.4317   3.4556   3.4573   3.4634
     3.9506   4.3243   4.3277   4.3283   4.9578   4.9626   5.5973   5.6024

     occupation numbers 
     1.0000   1.0000   1.0000   1.0000   1.0000   1.0000   1.0000   1.0000
     1.0000   1.0000   1.0000   1.0000   1.0000   1.0000   1.0000   1.0000
     1.0000   1.0000   1.0000   1.0000   1.0000   1.0000   1.0000   1.0000
     1.0000   1.0000   1.0000   1.0000   1.0000   1.0000   1.0000   1.0000

          k = 0.3536-0.3536 0.7778 (  4671 PWs)   bands (ev):

    -5.2222  -4.4236  -4.0384  -3.2215  -3.2166  -2.9689  -2.9636  -2.1940
    -1.0597  -0.6669  -0.6616   0.0789   0.0837   0.5584   1.0377   1.8310
     2.6062   2.6114   2.6808   2.6824   3.2347   3.3432   3.3475   3.6185
     3.8397   3.8793   3.8827   4.2816   4.4933   4.5183   4.5836   5.6623

     occupation numbers 
     1.0000   1.0000   1.0000   1.0000   1.0000   1.0000   1.0000   1.0000
     1.0000   1.0000   1.0000   1.0000   1.0000   1.0000   1.0000   1.0000
     1.0000   1.0000   1.0000   1.0000   1.0000   1.0000   1.0000   1.0000
     1.0000   1.0000   1.0000   1.0000   1.0000   1.0000   1.0000   1.0000

          k = 0.2121-0.2121 0.6364 (  4679 PWs)   bands (ev):

    -4.7308  -4.7242  -4.3159  -3.5642  -3.5592  -2.6989  -2.4827  -2.4775
    -0.7851  -0.7806  -0.5870   0.4093   0.4144   1.4557   1.7601   2.0243
     2.0264   2.0416   2.0753   2.5191   2.5224   3.1892   3.1920   3.5803
     3.7219   3.8752   3.8822   3.9914   4.0837   4.3372   4.4274   5.3458

     occupation numbers 
     1.0000   1.0000   1.0000   1.0000   1.0000   1.0000   1.0000   1.0000
     1.0000   1.0000   1.0000   1.0000   1.0000   1.0000   1.0000   1.0000
     1.0000   1.0000   1.0000   1.0000   1.0000   1.0000   1.0000   1.0000
     1.0000   1.0000   1.0000   1.0000   1.0000   1.0000   1.0000   1.0000

          k =-0.2121-0.9192 0.2121 (  4675 PWs)   bands (ev):

    -5.0556  -4.6559  -3.8331  -3.5195  -3.5195  -2.8141  -2.5327  -2.5326
    -0.7237  -0.7232  -0.6675   0.1289   0.1291   0.8029   1.5711   2.0858
     2.0870   2.1409   2.6982   2.8195   2.8215   3.1951   3.2986   3.3000
     3.7995   3.9647   3.9672   4.0519   4.0878   4.8191   4.9468   5.2812

     occupation numbers 
     1.0000   1.0000   1.0000   1.0000   1.0000   1.0000   1.0000   1.0000
     1.0000   1.0000   1.0000   1.0000   1.0000   1.0000   1.0000   1.0000
     1.0000   1.0000   1.0000   1.0000   1.0000   1.0000   1.0000   1.0000
     1.0000   1.0000   1.0000   1.0000   1.0000   1.0000   1.0000   1.0000

          k =-0.3536-0.7778 0.0707 (  4670 PWs)   bands (ev):

    -4.6484  -4.6413  -4.2396  -4.2390  -2.8407  -2.8342  -2.6114  -2.6059
    -0.6338  -0.6275  -0.3773  -0.3749   1.3708   1.3753   1.8236   1.8237
     1.9919   1.9981   2.0237   2.0291   3.2273   3.2306   3.4128   3.4184
     3.5506   3.5544   3.5997   3.6061   4.2904   4.2961   4.8566   4.8611

     occupation numbers 
     1.0000   1.0000   1.0000   1.0000   1.0000   1.0000   1.0000   1.0000
     1.0000   1.0000   1.0000   1.0000   1.0000   1.0000   1.0000   1.0000
     1.0000   1.0000   1.0000   1.0000   1.0000   1.0000   1.0000   1.0000
     1.0000   1.0000   1.0000   1.0000   1.0000   1.0000   1.0000   1.0000

          k = 0.3536-0.3536-0.3536 (  4664 PWs)   bands (ev):

    -4.9825  -4.9754  -3.1126  -3.1061  -3.1055  -3.1040  -3.1035  -3.0944
    -0.3071  -0.2974  -0.2964  -0.2939  -0.2938  -0.2927   2.1250   2.1303
     2.5348   2.5350   2.5364   2.5391   2.5415   2.5501   3.8168   3.8225
     3.8246   3.8281   3.8297   3.8302   5.2246   5.2344   5.2374   5.2375

     occupation numbers 
     1.0000   1.0000   1.0000   1.0000   1.0000   1.0000   1.0000   1.0000
     1.0000   1.0000   1.0000   1.0000   1.0000   1.0000   1.0000   1.0000
     1.0000   1.0000   1.0000   1.0000   1.0000   1.0000   1.0000   1.0000
     1.0000   1.0000   1.0000   1.0000   1.0000   1.0000   1.0000   1.0000

          k = 0.0707 0.0707-0.0707 (  4684 PWs)   bands (ev):

    -5.7289  -3.6148  -3.4781  -3.4734  -3.4707  -2.0737  -2.0701  -2.0669
    -1.3217  -1.3187  -1.3152  -0.8115  -0.8105  -0.8049  -0.6608   3.0655
     3.0687   3.0700   3.2216   3.2221   3.2244   4.5586   4.5669   4.5691
     4.7385   4.7398   4.7433   4.8193   4.8243   5.6187   5.9227   5.9287

     occupation numbers 
     1.0000   1.0000   1.0000   1.0000   1.0000   1.0000   1.0000   1.0000
     1.0000   1.0000   1.0000   1.0000   1.0000   1.0000   1.0000   1.0000
     1.0000   1.0000   1.0000   1.0000   1.0000   1.0000   1.0000   1.0000
     1.0000   1.0000   1.0000   1.0000   1.0000   1.0000   1.0000   1.0000

          k =-0.0707-0.0707-0.0707 (  4684 PWs)   bands (ev):

    -5.7289  -3.6166  -3.4775  -3.4734  -3.4692  -2.0749  -2.0700  -2.0652
    -1.3238  -1.3188  -1.3138  -0.8156  -0.8105  -0.8053  -0.6566   3.0672
     3.0693   3.0713   3.2191   3.2216   3.2241   4.5655   4.5682   4.5708
     4.7345   4.7379   4.7412   4.8167   4.8249   5.6238   5.9179   5.9280

     occupation numbers 
     1.0000   1.0000   1.0000   1.0000   1.0000   1.0000   1.0000   1.0000
     1.0000   1.0000   1.0000   1.0000   1.0000   1.0000   1.0000   1.0000
     1.0000   1.0000   1.0000   1.0000   1.0000   1.0000   1.0000   1.0000
     1.0000   1.0000   1.0000   1.0000   1.0000   1.0000   1.0000   1.0000

          k = 0.2121 0.2121 0.0707 (  4693 PWs)   bands (ev):

    -5.5584  -4.0167  -3.6959  -3.3065  -3.3011  -2.7190  -2.7142  -2.0358
    -1.2728  -0.7368  -0.7314  -0.5473  -0.5426  -0.3096   0.0521   2.3735
     2.8550   2.8568   3.2283   3.2322   3.3588   3.5972   3.6026   4.1688
     4.4367   4.4398   4.5010   4.5301   4.7474   4.7515   5.3649   5.8524

     occupation numbers 
     1.0000   1.0000   1.0000   1.0000   1.0000   1.0000   1.0000   1.0000
     1.0000   1.0000   1.0000   1.0000   1.0000   1.0000   1.0000   1.0000
     1.0000   1.0000   1.0000   1.0000   1.0000   1.0000   1.0000   1.0000
     1.0000   1.0000   1.0000   1.0000   1.0000   1.0000   1.0000   1.0000

          k =-0.2121-0.2121 0.0707 (  4693 PWs)   bands (ev):

    -5.5584  -4.0156  -3.6974  -3.3065  -3.3012  -2.7191  -2.7142  -2.0370
    -1.2712  -0.7367  -0.7313  -0.5470  -0.5424  -0.3056   0.0484   2.3730
     2.8526   2.8549   3.2311   3.2332   3.3588   3.5955   3.6021   4.1653
     4.4377   4.4411   4.4983   4.5311   4.7480   4.7535   5.3678   5.8522

     occupation numbers 
     1.0000   1.0000   1.0000   1.0000   1.0000   1.0000   1.0000   1.0000
     1.0000   1.0000   1.0000   1.0000   1.0000   1.0000   1.0000   1.0000
     1.0000   1.0000   1.0000   1.0000   1.0000   1.0000   1.0000   1.0000
     1.0000   1.0000   1.0000   1.0000   1.0000   1.0000   1.0000   1.0000

          k =-0.2121 0.2121 0.0707 (  4693 PWs)   bands (ev):

    -5.5585  -4.0177  -3.6972  -3.3045  -3.2992  -2.7182  -2.7133  -2.0381
    -1.2702  -0.7415  -0.7358  -0.5491  -0.5447  -0.3062   0.0555   2.3767
     2.8556   2.8578   3.2299   3.2320   3.3554   3.6016   3.6081   4.1717
     4.4336   4.4371   4.5068   4.5251   4.7440   4.7528   5.3654   5.8440

     occupation numbers 
     1.0000   1.0000   1.0000   1.0000   1.0000   1.0000   1.0000   1.0000
     1.0000   1.0000   1.0000   1.0000   1.0000   1.0000   1.0000   1.0000
     1.0000   1.0000   1.0000   1.0000   1.0000   1.0000   1.0000   1.0000
     1.0000   1.0000   1.0000   1.0000   1.0000   1.0000   1.0000   1.0000

          k = 0.2121-0.0707 0.2121 (  4693 PWs)   bands (ev):

    -5.5584  -4.0167  -3.6974  -3.3050  -3.3006  -2.7195  -2.7128  -2.0375
    -1.2707  -0.7410  -0.7317  -0.5500  -0.5416  -0.3059   0.0519   2.3749
     2.8536   2.8569   3.2297   3.2334   3.3572   3.6009   3.6028   4.1684
     4.4341   4.4404   4.5023   4.5285   4.7447   4.7545   5.3666   5.8481

     occupation numbers 
     1.0000   1.0000   1.0000   1.0000   1.0000   1.0000   1.0000   1.0000
     1.0000   1.0000   1.0000   1.0000   1.0000   1.0000   1.0000   1.0000
     1.0000   1.0000   1.0000   1.0000   1.0000   1.0000   1.0000   1.0000
     1.0000   1.0000   1.0000   1.0000   1.0000   1.0000   1.0000   1.0000

          k = 0.2121 0.0707-0.2121 (  4693 PWs)   bands (ev):

    -5.5584  -4.0155  -3.6988  -3.3029  -3.3028  -2.7162  -2.7162  -2.0386
    -1.2692  -0.7362  -0.7361  -0.5457  -0.5456  -0.3017   0.0482   2.3744
     2.8519   2.8542   3.2323   3.2347   3.3572   3.6002   3.6013   4.1649
     4.4377   4.4390   4.5003   4.5289   4.7455   4.7562   5.3697   5.8478

     occupation numbers 
     1.0000   1.0000   1.0000   1.0000   1.0000   1.0000   1.0000   1.0000
     1.0000   1.0000   1.0000   1.0000   1.0000   1.0000   1.0000   1.0000
     1.0000   1.0000   1.0000   1.0000   1.0000   1.0000   1.0000   1.0000
     1.0000   1.0000   1.0000   1.0000   1.0000   1.0000   1.0000   1.0000

          k =-0.2121 0.0707 0.2121 (  4693 PWs)   bands (ev):

    -5.5584  -4.0177  -3.6959  -3.3029  -3.3028  -2.7162  -2.7161  -2.0364
    -1.2723  -0.7364  -0.7363  -0.5461  -0.5460  -0.3100   0.0556   2.3754
     2.8563   2.8585   3.2284   3.2308   3.3571   3.6024   3.6036   4.1719
     4.4354   4.4372   4.5055   4.5271   4.7476   4.7488   5.3637   5.8483

     occupation numbers 
     1.0000   1.0000   1.0000   1.0000   1.0000   1.0000   1.0000   1.0000
     1.0000   1.0000   1.0000   1.0000   1.0000   1.0000   1.0000   1.0000
     1.0000   1.0000   1.0000   1.0000   1.0000   1.0000   1.0000   1.0000
     1.0000   1.0000   1.0000   1.0000   1.0000   1.0000   1.0000   1.0000

          k =-0.3536-0.3536-0.4950 (  4669 PWs)   bands (ev):

    -5.1405  -4.7383  -3.5929  -3.1811  -3.1761  -3.0264  -3.0213  -2.6025
    -0.7107  -0.5225  -0.5176  -0.0643  -0.0593   0.1188   1.5575   2.0761
     2.5618   2.5654   2.5749   2.5773   2.7152   3.1484   3.5998   3.6043
     3.6916   3.8972   3.9000   4.0292   4.9158   4.9386   5.0591   5.5102

     occupation numbers 
     1.0000   1.0000   1.0000   1.0000   1.0000   1.0000   1.0000   1.0000
     1.0000   1.0000   1.0000   1.0000   1.0000   1.0000   1.0000   1.0000
     1.0000   1.0000   1.0000   1.0000   1.0000   1.0000   1.0000   1.0000
     1.0000   1.0000   1.0000   1.0000   1.0000   1.0000   1.0000   1.0000

          k = 0.3536 0.3536-0.4950 (  4669 PWs)   bands (ev):

    -5.1404  -4.7379  -3.5940  -3.1811  -3.1761  -3.0266  -3.0214  -2.6042
    -0.7070  -0.5221  -0.5170  -0.0635  -0.0587   0.1229   1.5541   2.0738
     2.5585   2.5644   2.5719   2.5739   2.7126   3.1447   3.6035   3.6054
     3.6917   3.8987   3.9015   4.0297   4.9149   4.9418   5.0633   5.5094

     occupation numbers 
     1.0000   1.0000   1.0000   1.0000   1.0000   1.0000   1.0000   1.0000
     1.0000   1.0000   1.0000   1.0000   1.0000   1.0000   1.0000   1.0000
     1.0000   1.0000   1.0000   1.0000   1.0000   1.0000   1.0000   1.0000
     1.0000   1.0000   1.0000   1.0000   1.0000   1.0000   1.0000   1.0000

          k = 0.3536-0.3536-0.4950 (  4669 PWs)   bands (ev):

    -5.1408  -4.7387  -3.5937  -3.1798  -3.1748  -3.0249  -3.0197  -2.6046
    -0.7072  -0.5269  -0.5217  -0.0683  -0.0635   0.1212   1.5602   2.0786
     2.5655   2.5696   2.5765   2.5801   2.7195   3.1511   3.6022   3.6042
     3.6878   3.8956   3.8984   4.0251   4.9102   4.9404   5.0626   5.5029

     occupation numbers 
     1.0000   1.0000   1.0000   1.0000   1.0000   1.0000   1.0000   1.0000
     1.0000   1.0000   1.0000   1.0000   1.0000   1.0000   1.0000   1.0000
     1.0000   1.0000   1.0000   1.0000   1.0000   1.0000   1.0000   1.0000
     1.0000   1.0000   1.0000   1.0000   1.0000   1.0000   1.0000   1.0000

          k =-0.3536 0.4950-0.3536 (  4669 PWs)   bands (ev):

    -5.1406  -4.7383  -3.5939  -3.1811  -3.1747  -3.0258  -3.0205  -2.6044
    -0.7072  -0.5267  -0.5171  -0.0683  -0.0587   0.1221   1.5572   2.0762
     2.5631   2.5662   2.5738   2.5773   2.7158   3.1478   3.6024   3.6054
     3.6899   3.8958   3.9010   4.0274   4.9121   4.9417   5.0629   5.5062

     occupation numbers 
     1.0000   1.0000   1.0000   1.0000   1.0000   1.0000   1.0000   1.0000
     1.0000   1.0000   1.0000   1.0000   1.0000   1.0000   1.0000   1.0000
     1.0000   1.0000   1.0000   1.0000   1.0000   1.0000   1.0000   1.0000
     1.0000   1.0000   1.0000   1.0000   1.0000   1.0000   1.0000   1.0000

          k =-0.3536-0.4950 0.3536 (  4669 PWs)   bands (ev):

    -5.1404  -4.7378  -3.5949  -3.1784  -3.1780  -3.0233  -3.0230  -2.6060
    -0.7035  -0.5215  -0.5212  -0.0629  -0.0627   0.1262   1.5538   2.0740
     2.5597   2.5629   2.5731   2.5741   2.7130   3.1442   3.6048   3.6077
     3.6900   3.8989   3.9012   4.0278   4.9119   4.9440   5.0674   5.5054

     occupation numbers 
     1.0000   1.0000   1.0000   1.0000   1.0000   1.0000   1.0000   1.0000
     1.0000   1.0000   1.0000   1.0000   1.0000   1.0000   1.0000   1.0000
     1.0000   1.0000   1.0000   1.0000   1.0000   1.0000   1.0000   1.0000
     1.0000   1.0000   1.0000   1.0000   1.0000   1.0000   1.0000   1.0000

          k = 0.3536-0.4950-0.3536 (  4669 PWs)   bands (ev):

    -5.1408  -4.7387  -3.5927  -3.1782  -3.1779  -3.0231  -3.0228  -2.6027
    -0.7108  -0.5225  -0.5223  -0.0644  -0.0641   0.1180   1.5606   2.0785
     2.5655   2.5660   2.5779   2.5814   2.7187   3.1517   3.5998   3.6029
     3.6896   3.8961   3.8982   4.0269   4.9136   4.9374   5.0590   5.5068

     occupation numbers 
     1.0000   1.0000   1.0000   1.0000   1.0000   1.0000   1.0000   1.0000
     1.0000   1.0000   1.0000   1.0000   1.0000   1.0000   1.0000   1.0000
     1.0000   1.0000   1.0000   1.0000   1.0000   1.0000   1.0000   1.0000
     1.0000   1.0000   1.0000   1.0000   1.0000   1.0000   1.0000   1.0000

          k =-0.2121-0.2121-0.3536 (  4669 PWs)   bands (ev):

    -5.3060  -4.5078  -3.4478  -3.4427  -3.2837  -3.0466  -2.6118  -2.6068
    -0.6804  -0.6435  -0.6394  -0.2404  -0.2350   0.1240   1.0161   2.2394
     2.2414   2.7467   2.7817   3.1793   3.1822   3.3207   3.4261   3.4289
     3.5821   4.1351   4.1410   4.1683   4.6528   5.1504   5.2299   5.4443

     occupation numbers 
     1.0000   1.0000   1.0000   1.0000   1.0000   1.0000   1.0000   1.0000
     1.0000   1.0000   1.0000   1.0000   1.0000   1.0000   1.0000   1.0000
     1.0000   1.0000   1.0000   1.0000   1.0000   1.0000   1.0000   1.0000
     1.0000   1.0000   1.0000   1.0000   1.0000   1.0000   1.0000   1.0000

          k = 0.2121 0.2121-0.3536 (  4669 PWs)   bands (ev):

    -5.3058  -4.5072  -3.4478  -3.4427  -3.2845  -3.0486  -2.6119  -2.6070
    -0.6753  -0.6432  -0.6388  -0.2399  -0.2345   0.1267   1.0131   2.2366
     2.2397   2.7437   2.7790   3.1754   3.1792   3.3171   3.4278   3.4301
     3.5822   4.1400   4.1422   4.1689   4.6559   5.1492   5.2294   5.4493

     occupation numbers 
     1.0000   1.0000   1.0000   1.0000   1.0000   1.0000   1.0000   1.0000
     1.0000   1.0000   1.0000   1.0000   1.0000   1.0000   1.0000   1.0000
     1.0000   1.0000   1.0000   1.0000   1.0000   1.0000   1.0000   1.0000
     1.0000   1.0000   1.0000   1.0000   1.0000   1.0000   1.0000   1.0000

          k = 0.2121-0.2121-0.3536 (  4669 PWs)   bands (ev):

    -5.3061  -4.5084  -3.4462  -3.4411  -3.2842  -3.0489  -2.6107  -2.6057
    -0.6754  -0.6464  -0.6419  -0.2449  -0.2396   0.1248   1.0197   2.2411
     2.2441   2.7488   2.7849   3.1802   3.1839   3.3235   3.4255   3.4279
     3.5785   4.1390   4.1414   4.1639   4.6553   5.1438   5.2239   5.4480

     occupation numbers 
     1.0000   1.0000   1.0000   1.0000   1.0000   1.0000   1.0000   1.0000
     1.0000   1.0000   1.0000   1.0000   1.0000   1.0000   1.0000   1.0000
     1.0000   1.0000   1.0000   1.0000   1.0000   1.0000   1.0000   1.0000
     1.0000   1.0000   1.0000   1.0000   1.0000   1.0000   1.0000   1.0000

          k =-0.2121 0.3536-0.2121 (  4669 PWs)   bands (ev):

    -5.3060  -4.5078  -3.4474  -3.4415  -3.2843  -3.0488  -2.6119  -2.6057
    -0.6755  -0.6468  -0.6382  -0.2447  -0.2349   0.1258   1.0164   2.2385
     2.2422   2.7463   2.7819   3.1768   3.1825   3.3202   3.4255   3.4301
     3.5805   4.1396   4.1417   4.1664   4.6556   5.1468   5.2264   5.4487

     occupation numbers 
     1.0000   1.0000   1.0000   1.0000   1.0000   1.0000   1.0000   1.0000
     1.0000   1.0000   1.0000   1.0000   1.0000   1.0000   1.0000   1.0000
     1.0000   1.0000   1.0000   1.0000   1.0000   1.0000   1.0000   1.0000
     1.0000   1.0000   1.0000   1.0000   1.0000   1.0000   1.0000   1.0000

          k =-0.2121-0.3536 0.2121 (  4669 PWs)   bands (ev):

    -5.3058  -4.5073  -3.4446  -3.4444  -3.2851  -3.0507  -2.6090  -2.6090
    -0.6713  -0.6420  -0.6411  -0.2394  -0.2392   0.1285   1.0134   2.2372
     2.2390   2.7431   2.7794   3.1749   3.1777   3.3165   3.4282   3.4304
     3.5805   4.1419   4.1457   4.1669   4.6588   5.1457   5.2258   5.4538

     occupation numbers 
     1.0000   1.0000   1.0000   1.0000   1.0000   1.0000   1.0000   1.0000
     1.0000   1.0000   1.0000   1.0000   1.0000   1.0000   1.0000   1.0000
     1.0000   1.0000   1.0000   1.0000   1.0000   1.0000   1.0000   1.0000
     1.0000   1.0000   1.0000   1.0000   1.0000   1.0000   1.0000   1.0000

          k = 0.2121-0.3536-0.2121 (  4669 PWs)   bands (ev):

    -5.3061  -4.5083  -3.4444  -3.4444  -3.2837  -3.0468  -2.6087  -2.6086
    -0.6804  -0.6431  -0.6429  -0.2403  -0.2401   0.1230   1.0194   2.2417
     2.2435   2.7493   2.7846   3.1817   3.1845   3.3241   3.4252   3.4274
     3.5802   4.1357   4.1394   4.1658   4.6524   5.1478   5.2269   5.4436

     occupation numbers 
     1.0000   1.0000   1.0000   1.0000   1.0000   1.0000   1.0000   1.0000
     1.0000   1.0000   1.0000   1.0000   1.0000   1.0000   1.0000   1.0000
     1.0000   1.0000   1.0000   1.0000   1.0000   1.0000   1.0000   1.0000
     1.0000   1.0000   1.0000   1.0000   1.0000   1.0000   1.0000   1.0000

          k =-0.0707-0.0707-0.2121 (  4693 PWs)   bands (ev):

    -5.6434  -3.7825  -3.5352  -3.5300  -3.3863  -2.7667  -2.0398  -2.0351
    -1.3053  -1.3006  -0.7744  -0.6160  -0.6105  -0.5252  -0.3413   2.7624
     2.7647   3.1369   3.1399   3.1519   3.3003   3.9616   4.1699   4.1739
     4.5285   4.6447   4.6668   4.6748   4.8815   5.0806   5.6303   5.7470

     occupation numbers 
     1.0000   1.0000   1.0000   1.0000   1.0000   1.0000   1.0000   1.0000
     1.0000   1.0000   1.0000   1.0000   1.0000   1.0000   1.0000   1.0000
     1.0000   1.0000   1.0000   1.0000   1.0000   1.0000   1.0000   1.0000
     1.0000   1.0000   1.0000   1.0000   1.0000   1.0000   1.0000   1.0000

          k = 0.0707 0.0707-0.2121 (  4693 PWs)   bands (ev):

    -5.6434  -3.7811  -3.5352  -3.5299  -3.3884  -2.7670  -2.0401  -2.0353
    -1.3049  -1.3003  -0.7699  -0.6159  -0.6104  -0.5246  -0.3451   2.7603
     2.7632   3.1390   3.1411   3.1511   3.3003   3.9585   4.1675   4.1711
     4.5318   4.6457   4.6712   4.6759   4.8802   5.0756   5.6301   5.7529

     occupation numbers 
     1.0000   1.0000   1.0000   1.0000   1.0000   1.0000   1.0000   1.0000
     1.0000   1.0000   1.0000   1.0000   1.0000   1.0000   1.0000   1.0000
     1.0000   1.0000   1.0000   1.0000   1.0000   1.0000   1.0000   1.0000
     1.0000   1.0000   1.0000   1.0000   1.0000   1.0000   1.0000   1.0000

          k = 0.0707-0.0707-0.2121 (  4693 PWs)   bands (ev):

    -5.6434  -3.7839  -3.5333  -3.5280  -3.3885  -2.7668  -2.0395  -2.0347
    -1.3058  -1.3011  -0.7697  -0.6204  -0.6150  -0.5251  -0.3372   2.7625
     2.7654   3.1372   3.1393   3.1550   3.2970   3.9641   4.1684   4.1722
     4.5316   4.6393   4.6729   4.6776   4.8755   5.0832   5.6231   5.7515

     occupation numbers 
     1.0000   1.0000   1.0000   1.0000   1.0000   1.0000   1.0000   1.0000
     1.0000   1.0000   1.0000   1.0000   1.0000   1.0000   1.0000   1.0000
     1.0000   1.0000   1.0000   1.0000   1.0000   1.0000   1.0000   1.0000
     1.0000   1.0000   1.0000   1.0000   1.0000   1.0000   1.0000   1.0000

          k =-0.0707 0.2121-0.0707 (  4693 PWs)   bands (ev):

    -5.6434  -3.7826  -3.5341  -3.5291  -3.3884  -2.7669  -2.0408  -2.0339
    -1.3068  -1.2993  -0.7698  -0.6203  -0.6109  -0.5246  -0.3412   2.7606
     2.7651   3.1370   3.1412   3.1531   3.2987   3.9613   4.1662   4.1733
     4.5317   4.6427   4.6734   4.6753   4.8779   5.0794   5.6266   5.7523

     occupation numbers 
     1.0000   1.0000   1.0000   1.0000   1.0000   1.0000   1.0000   1.0000
     1.0000   1.0000   1.0000   1.0000   1.0000   1.0000   1.0000   1.0000
     1.0000   1.0000   1.0000   1.0000   1.0000   1.0000   1.0000   1.0000
     1.0000   1.0000   1.0000   1.0000   1.0000   1.0000   1.0000   1.0000

          k =-0.0707-0.2121 0.0707 (  4693 PWs)   bands (ev):

    -5.6434  -3.7812  -3.5317  -3.5316  -3.3904  -2.7672  -2.0376  -2.0375
    -1.3028  -1.3026  -0.7654  -0.6153  -0.6153  -0.5243  -0.3448   2.7600
     2.7620   3.1396   3.1414   3.1529   3.2987   3.9581   4.1660   4.1686
     4.5348   4.6435   4.6754   4.6791   4.8766   5.0744   5.6264   5.7583

     occupation numbers 
     1.0000   1.0000   1.0000   1.0000   1.0000   1.0000   1.0000   1.0000
     1.0000   1.0000   1.0000   1.0000   1.0000   1.0000   1.0000   1.0000
     1.0000   1.0000   1.0000   1.0000   1.0000   1.0000   1.0000   1.0000
     1.0000   1.0000   1.0000   1.0000   1.0000   1.0000   1.0000   1.0000

          k = 0.0707-0.2121-0.0707 (  4693 PWs)   bands (ev):

    -5.6434  -3.7839  -3.5317  -3.5316  -3.3863  -2.7667  -2.0372  -2.0372
    -1.3034  -1.3033  -0.7744  -0.6155  -0.6155  -0.5256  -0.3373   2.7637
     2.7656   3.1362   3.1387   3.1540   3.2986   3.9643   4.1711   4.1738
     4.5283   4.6415   4.6702   4.6734   4.8790   5.0843   5.6268   5.7462

     occupation numbers 
     1.0000   1.0000   1.0000   1.0000   1.0000   1.0000   1.0000   1.0000
     1.0000   1.0000   1.0000   1.0000   1.0000   1.0000   1.0000   1.0000
     1.0000   1.0000   1.0000   1.0000   1.0000   1.0000   1.0000   1.0000
     1.0000   1.0000   1.0000   1.0000   1.0000   1.0000   1.0000   1.0000

          k = 0.0707 0.3536-0.0707 (  4682 PWs)   bands (ev):

    -5.4728  -3.9335  -3.6165  -3.6164  -3.4029  -3.3679  -1.9813  -1.9811
    -1.2783  -1.2781  -0.5397  -0.2685  -0.2685   0.0861   0.3018   2.4366
     2.4382   2.9090   2.9107   3.2486   3.3193   3.4519   3.5402   3.5413
     3.9302   4.3920   4.5526   4.6242   4.6262   4.9069   5.1992   5.3079

     occupation numbers 
     1.0000   1.0000   1.0000   1.0000   1.0000   1.0000   1.0000   1.0000
     1.0000   1.0000   1.0000   1.0000   1.0000   1.0000   1.0000   1.0000
     1.0000   1.0000   1.0000   1.0000   1.0000   1.0000   1.0000   1.0000
     1.0000   1.0000   1.0000   1.0000   1.0000   1.0000   1.0000   1.0000

          k =-0.0707-0.3536-0.0707 (  4682 PWs)   bands (ev):

    -5.4728  -3.9344  -3.6193  -3.6136  -3.4024  -3.3666  -1.9842  -1.9776
    -1.2824  -1.2750  -0.5437  -0.2736  -0.2638   0.0894   0.3008   2.4368
     2.4414   2.9059   2.9109   3.2515   3.3203   3.4519   3.5384   3.5458
     3.9274   4.3961   4.5520   4.6219   4.6254   4.9079   5.1994   5.3028

     occupation numbers 
     1.0000   1.0000   1.0000   1.0000   1.0000   1.0000   1.0000   1.0000
     1.0000   1.0000   1.0000   1.0000   1.0000   1.0000   1.0000   1.0000
     1.0000   1.0000   1.0000   1.0000   1.0000   1.0000   1.0000   1.0000
     1.0000   1.0000   1.0000   1.0000   1.0000   1.0000   1.0000   1.0000

          k = 0.3536-0.0707-0.0707 (  4682 PWs)   bands (ev):

    -5.4729  -3.9355  -3.6182  -3.6131  -3.4027  -3.3665  -1.9830  -1.9782
    -1.2815  -1.2769  -0.5433  -0.2737  -0.2683   0.0932   0.3004   2.4390
     2.4416   2.9062   2.9088   3.2538   3.3225   3.4500   3.5401   3.5439
     3.9270   4.3989   4.5489   4.6224   4.6288   4.9053   5.1966   5.3024

     occupation numbers 
     1.0000   1.0000   1.0000   1.0000   1.0000   1.0000   1.0000   1.0000
     1.0000   1.0000   1.0000   1.0000   1.0000   1.0000   1.0000   1.0000
     1.0000   1.0000   1.0000   1.0000   1.0000   1.0000   1.0000   1.0000
     1.0000   1.0000   1.0000   1.0000   1.0000   1.0000   1.0000   1.0000

          k =-0.3536 0.0707-0.0707 (  4682 PWs)   bands (ev):

    -5.4729  -3.9343  -3.6198  -3.6147  -3.4023  -3.3647  -1.9834  -1.9787
    -1.2809  -1.2763  -0.5481  -0.2691  -0.2638   0.0890   0.3004   2.4385
     2.4408   2.9066   2.9093   3.2520   3.3191   3.4535   3.5415   3.5457
     3.9250   4.3977   4.5540   4.6163   4.6243   4.9113   5.2024   5.2979

     occupation numbers 
     1.0000   1.0000   1.0000   1.0000   1.0000   1.0000   1.0000   1.0000
     1.0000   1.0000   1.0000   1.0000   1.0000   1.0000   1.0000   1.0000
     1.0000   1.0000   1.0000   1.0000   1.0000   1.0000   1.0000   1.0000
     1.0000   1.0000   1.0000   1.0000   1.0000   1.0000   1.0000   1.0000

          k = 0.3536 0.0707 0.0707 (  4682 PWs)   bands (ev):

    -5.4728  -3.9346  -3.6182  -3.6131  -3.4025  -3.3684  -1.9832  -1.9784
    -1.2811  -1.2765  -0.5392  -0.2735  -0.2682   0.0899   0.3013   2.4374
     2.4397   2.9076   2.9103   3.2509   3.3215   3.4501   3.5386   3.5427
     3.9298   4.3948   4.5496   4.6230   4.6310   4.9044   5.1964   5.3077

     occupation numbers 
     1.0000   1.0000   1.0000   1.0000   1.0000   1.0000   1.0000   1.0000
     1.0000   1.0000   1.0000   1.0000   1.0000   1.0000   1.0000   1.0000
     1.0000   1.0000   1.0000   1.0000   1.0000   1.0000   1.0000   1.0000
     1.0000   1.0000   1.0000   1.0000   1.0000   1.0000   1.0000   1.0000

          k =-0.3536-0.0707 0.0707 (  4682 PWs)   bands (ev):

    -5.4728  -3.9333  -3.6199  -3.6147  -3.4028  -3.3660  -1.9837  -1.9789
    -1.2804  -1.2759  -0.5441  -0.2690  -0.2636   0.0857   0.3012   2.4367
     2.4393   2.9081   2.9106   3.2491   3.3181   3.4535   3.5403   3.5442
     3.9278   4.3934   4.5548   4.6188   4.6249   4.9103   5.2023   5.3030

     occupation numbers 
     1.0000   1.0000   1.0000   1.0000   1.0000   1.0000   1.0000   1.0000
     1.0000   1.0000   1.0000   1.0000   1.0000   1.0000   1.0000   1.0000
     1.0000   1.0000   1.0000   1.0000   1.0000   1.0000   1.0000   1.0000
     1.0000   1.0000   1.0000   1.0000   1.0000   1.0000   1.0000   1.0000

          k =-0.4950-0.2121-0.6364 (  4675 PWs)   bands (ev):

    -5.1363  -4.3426  -3.9604  -3.9000  -3.2938  -3.0470  -2.4916  -2.1055
    -1.1009  -0.6847  -0.4829  -0.2051   0.5704   1.0020   1.0503   1.8937
     2.2199   2.3207   2.5607   2.9110   3.1718   3.1771   3.2371   3.3020
     3.6580   3.7061   4.0782   4.1441   4.4684   4.4756   4.9726   5.1189

     occupation numbers 
     1.0000   1.0000   1.0000   1.0000   1.0000   1.0000   1.0000   1.0000
     1.0000   1.0000   1.0000   1.0000   1.0000   1.0000   1.0000   1.0000
     1.0000   1.0000   1.0000   1.0000   1.0000   1.0000   1.0000   1.0000
     1.0000   1.0000   1.0000   1.0000   1.0000   1.0000   1.0000   1.0000

          k = 0.4950 0.2121-0.6364 (  4675 PWs)   bands (ev):

    -5.1362  -4.3422  -3.9609  -3.9003  -3.2929  -3.0482  -2.4910  -2.1071
    -1.0985  -0.6859  -0.4794  -0.2080   0.5735   1.0030   1.0477   1.8933
     2.2182   2.3189   2.5614   2.9131   3.1696   3.1765   3.2331   3.2996
     3.6613   3.7071   4.0794   4.1436   4.4710   4.4775   4.9714   5.1188

     occupation numbers 
     1.0000   1.0000   1.0000   1.0000   1.0000   1.0000   1.0000   1.0000
     1.0000   1.0000   1.0000   1.0000   1.0000   1.0000   1.0000   1.0000
     1.0000   1.0000   1.0000   1.0000   1.0000   1.0000   1.0000   1.0000
     1.0000   1.0000   1.0000   1.0000   1.0000   1.0000   1.0000   1.0000

          k =-0.2121 0.4950-0.6364 (  4675 PWs)   bands (ev):

    -5.1364  -4.3424  -3.9616  -3.8997  -3.2933  -3.0451  -2.4894  -2.1105
    -1.0940  -0.6892  -0.4873  -0.2073   0.5766   0.9990   1.0490   1.8955
     2.2181   2.3222   2.5652   2.9153   3.1733   3.1758   3.2347   3.3008
     3.6575   3.7103   4.0747   4.1450   4.4681   4.4747   4.9751   5.1120

     occupation numbers 
     1.0000   1.0000   1.0000   1.0000   1.0000   1.0000   1.0000   1.0000
     1.0000   1.0000   1.0000   1.0000   1.0000   1.0000   1.0000   1.0000
     1.0000   1.0000   1.0000   1.0000   1.0000   1.0000   1.0000   1.0000
     1.0000   1.0000   1.0000   1.0000   1.0000   1.0000   1.0000   1.0000

          k = 0.2121-0.4950-0.6364 (  4675 PWs)   bands (ev):

    -5.1365  -4.3431  -3.9607  -3.8996  -3.2914  -3.0475  -2.4889  -2.1096
    -1.0955  -0.6902  -0.4820  -0.2125   0.5718   0.9993   1.0535   1.8965
     2.2198   2.3235   2.5644   2.9142   3.1726   3.1769   3.2343   3.3031
     3.6585   3.7080   4.0794   4.1405   4.4686   4.4783   4.9688   5.1123

     occupation numbers 
     1.0000   1.0000   1.0000   1.0000   1.0000   1.0000   1.0000   1.0000
     1.0000   1.0000   1.0000   1.0000   1.0000   1.0000   1.0000   1.0000
     1.0000   1.0000   1.0000   1.0000   1.0000   1.0000   1.0000   1.0000
     1.0000   1.0000   1.0000   1.0000   1.0000   1.0000   1.0000   1.0000

          k =-0.2121-0.4950 0.6364 (  4675 PWs)   bands (ev):

    -5.1362  -4.3419  -3.9613  -3.9000  -3.2943  -3.0464  -2.4916  -2.1068
    -1.0990  -0.6848  -0.4838  -0.2039   0.5743   1.0025   1.0466   1.8930
     2.2183   2.3192   2.5613   2.9126   3.1702   3.1770   3.2353   3.2997
     3.6592   3.7076   4.0765   4.1461   4.4697   4.4744   4.9750   5.1189

     occupation numbers 
     1.0000   1.0000   1.0000   1.0000   1.0000   1.0000   1.0000   1.0000
     1.0000   1.0000   1.0000   1.0000   1.0000   1.0000   1.0000   1.0000
     1.0000   1.0000   1.0000   1.0000   1.0000   1.0000   1.0000   1.0000
     1.0000   1.0000   1.0000   1.0000   1.0000   1.0000   1.0000   1.0000

          k = 0.2121 0.4950 0.6364 (  4675 PWs)   bands (ev):

    -5.1363  -4.3428  -3.9600  -3.9003  -3.2924  -3.0488  -2.4911  -2.1058
    -1.1005  -0.6859  -0.4784  -0.2092   0.5696   1.0027   1.0512   1.8940
     2.2199   2.3203   2.5607   2.9115   3.1713   3.1766   3.2348   3.3018
     3.6600   3.7055   4.0811   4.1415   4.4684   4.4799   4.9690   5.1189

     occupation numbers 
     1.0000   1.0000   1.0000   1.0000   1.0000   1.0000   1.0000   1.0000
     1.0000   1.0000   1.0000   1.0000   1.0000   1.0000   1.0000   1.0000
     1.0000   1.0000   1.0000   1.0000   1.0000   1.0000   1.0000   1.0000
     1.0000   1.0000   1.0000   1.0000   1.0000   1.0000   1.0000   1.0000

          k = 0.6364-0.2121-0.4950 (  4675 PWs)   bands (ev):

    -5.1365  -4.3430  -3.9608  -3.8997  -3.2929  -3.0456  -2.4894  -2.1093
    -1.0959  -0.6891  -0.4864  -0.2085   0.5726   0.9983   1.0529   1.8962
     2.2197   2.3237   2.5645   2.9137   3.1732   3.1774   3.2366   3.3033
     3.6563   3.7085   4.0765   4.1429   4.4682   4.4745   4.9726   5.1122

     occupation numbers 
     1.0000   1.0000   1.0000   1.0000   1.0000   1.0000   1.0000   1.0000
     1.0000   1.0000   1.0000   1.0000   1.0000   1.0000   1.0000   1.0000
     1.0000   1.0000   1.0000   1.0000   1.0000   1.0000   1.0000   1.0000
     1.0000   1.0000   1.0000   1.0000   1.0000   1.0000   1.0000   1.0000

          k =-0.4950 0.6364-0.2121 (  4675 PWs)   bands (ev):

    -5.1363  -4.3427  -3.9608  -3.8999  -3.2914  -3.0489  -2.4896  -2.1085
    -1.0968  -0.6886  -0.4785  -0.2122   0.5722   1.0016   1.0510   1.8950
     2.2190   2.3210   2.5630   2.9139   3.1727   3.1747   3.2325   3.3012
     3.6610   3.7073   4.0808   4.1407   4.4698   4.4801   4.9682   5.1156

     occupation numbers 
     1.0000   1.0000   1.0000   1.0000   1.0000   1.0000   1.0000   1.0000
     1.0000   1.0000   1.0000   1.0000   1.0000   1.0000   1.0000   1.0000
     1.0000   1.0000   1.0000   1.0000   1.0000   1.0000   1.0000   1.0000
     1.0000   1.0000   1.0000   1.0000   1.0000   1.0000   1.0000   1.0000

          k =-0.4950-0.6364 0.2121 (  4675 PWs)   bands (ev):

    -5.1363  -4.3419  -3.9617  -3.9001  -3.2933  -3.0464  -2.4901  -2.1094
    -1.0953  -0.6874  -0.4839  -0.2071   0.5770   1.0014   1.0464   1.8941
     2.2172   2.3200   2.5636   2.9150   3.1716   3.1749   3.2331   3.2991
     3.6600   3.7095   4.0763   4.1454   4.4702   4.4755   4.9745   5.1153

     occupation numbers 
     1.0000   1.0000   1.0000   1.0000   1.0000   1.0000   1.0000   1.0000
     1.0000   1.0000   1.0000   1.0000   1.0000   1.0000   1.0000   1.0000
     1.0000   1.0000   1.0000   1.0000   1.0000   1.0000   1.0000   1.0000
     1.0000   1.0000   1.0000   1.0000   1.0000   1.0000   1.0000   1.0000

          k = 0.4950 0.6364 0.2121 (  4675 PWs)   bands (ev):

    -5.1364  -4.3424  -3.9613  -3.8996  -3.2943  -3.0451  -2.4908  -2.1079
    -1.0977  -0.6865  -0.4873  -0.2042   0.5739   1.0000   1.0493   1.8945
     2.2190   2.3216   2.5629   2.9129   3.1739   3.1756   3.2370   3.3015
     3.6567   3.7083   4.0750   4.1456   4.4678   4.4735   4.9757   5.1155

     occupation numbers 
     1.0000   1.0000   1.0000   1.0000   1.0000   1.0000   1.0000   1.0000
     1.0000   1.0000   1.0000   1.0000   1.0000   1.0000   1.0000   1.0000
     1.0000   1.0000   1.0000   1.0000   1.0000   1.0000   1.0000   1.0000
     1.0000   1.0000   1.0000   1.0000   1.0000   1.0000   1.0000   1.0000

          k = 0.4950-0.6364-0.2121 (  4675 PWs)   bands (ev):

    -5.1364  -4.3431  -3.9600  -3.9000  -3.2924  -3.0475  -2.4903  -2.1069
    -1.0992  -0.6874  -0.4820  -0.2094   0.5691   1.0004   1.0538   1.8956
     2.2206   2.3229   2.5622   2.9118   3.1747   3.1752   3.2367   3.3037
     3.6576   3.7061   4.0797   4.1412   4.4673   4.4781   4.9696   5.1156

     occupation numbers 
     1.0000   1.0000   1.0000   1.0000   1.0000   1.0000   1.0000   1.0000
     1.0000   1.0000   1.0000   1.0000   1.0000   1.0000   1.0000   1.0000
     1.0000   1.0000   1.0000   1.0000   1.0000   1.0000   1.0000   1.0000
     1.0000   1.0000   1.0000   1.0000   1.0000   1.0000   1.0000   1.0000

          k =-0.3536-0.0707-0.4950 (  4662 PWs)   bands (ev):

    -4.9732  -4.5700  -4.1716  -3.7622  -3.0482  -2.8755  -2.7282  -2.3845
    -0.8663  -0.6819  -0.5159  -0.1252   0.7408   1.0231   1.5615   1.7493
     2.1315   2.2693   2.3247   2.6091   2.9182   3.3339   3.5511   3.5711
     3.6620   3.6656   3.7677   4.0334   4.0444   4.2640   4.7613   5.3718

     occupation numbers 
     1.0000   1.0000   1.0000   1.0000   1.0000   1.0000   1.0000   1.0000
     1.0000   1.0000   1.0000   1.0000   1.0000   1.0000   1.0000   1.0000
     1.0000   1.0000   1.0000   1.0000   1.0000   1.0000   1.0000   1.0000
     1.0000   1.0000   1.0000   1.0000   1.0000   1.0000   1.0000   1.0000

          k = 0.3536 0.0707-0.4950 (  4662 PWs)   bands (ev):

    -4.9731  -4.5696  -4.1720  -3.7625  -3.0480  -2.8740  -2.7300  -2.3854
    -0.8645  -0.6779  -0.5191  -0.1260   0.7422   1.0264   1.5582   1.7486
     2.1305   2.2689   2.3240   2.6073   2.9159   3.3350   3.5459   3.5734
     3.6606   3.6654   3.7689   4.0350   4.0491   4.2662   4.7597   5.3713

     occupation numbers 
     1.0000   1.0000   1.0000   1.0000   1.0000   1.0000   1.0000   1.0000
     1.0000   1.0000   1.0000   1.0000   1.0000   1.0000   1.0000   1.0000
     1.0000   1.0000   1.0000   1.0000   1.0000   1.0000   1.0000   1.0000
     1.0000   1.0000   1.0000   1.0000   1.0000   1.0000   1.0000   1.0000

          k =-0.0707 0.3536-0.4950 (  4662 PWs)   bands (ev):

    -4.9730  -4.5703  -4.1708  -3.7630  -3.0486  -2.8731  -2.7326  -2.3823
    -0.8700  -0.6729  -0.5210  -0.1244   0.7445   1.0194   1.5633   1.7491
     2.1305   2.2669   2.3262   2.6066   2.9176   3.3315   3.5488   3.5769
     3.6587   3.6664   3.7649   4.0342   4.0468   4.2703   4.7551   5.3753

     occupation numbers 
     1.0000   1.0000   1.0000   1.0000   1.0000   1.0000   1.0000   1.0000
     1.0000   1.0000   1.0000   1.0000   1.0000   1.0000   1.0000   1.0000
     1.0000   1.0000   1.0000   1.0000   1.0000   1.0000   1.0000   1.0000
     1.0000   1.0000   1.0000   1.0000   1.0000   1.0000   1.0000   1.0000

          k = 0.0707-0.3536-0.4950 (  4662 PWs)   bands (ev):

    -4.9734  -4.5705  -4.1712  -3.7621  -3.0468  -2.8718  -2.7311  -2.3859
    -0.8642  -0.6765  -0.5246  -0.1293   0.7397   1.0211   1.5652   1.7509
     2.1341   2.2708   2.3262   2.6124   2.9183   3.3354   3.5496   3.5750
     3.6567   3.6629   3.7693   4.0336   4.0461   4.2680   4.7543   5.3681

     occupation numbers 
     1.0000   1.0000   1.0000   1.0000   1.0000   1.0000   1.0000   1.0000
     1.0000   1.0000   1.0000   1.0000   1.0000   1.0000   1.0000   1.0000
     1.0000   1.0000   1.0000   1.0000   1.0000   1.0000   1.0000   1.0000
     1.0000   1.0000   1.0000   1.0000   1.0000   1.0000   1.0000   1.0000

          k =-0.0707-0.3536 0.4950 (  4662 PWs)   bands (ev):

    -4.9730  -4.5697  -4.1716  -3.7628  -3.0489  -2.8754  -2.7299  -2.3831
    -0.8682  -0.6781  -0.5159  -0.1231   0.7439   1.0238   1.5589   1.7480
     2.1293   2.2672   2.3242   2.6054   2.9167   3.3326   3.5478   3.5734
     3.6622   3.6673   3.7663   4.0353   4.0462   4.2663   4.7608   5.3752

     occupation numbers 
     1.0000   1.0000   1.0000   1.0000   1.0000   1.0000   1.0000   1.0000
     1.0000   1.0000   1.0000   1.0000   1.0000   1.0000   1.0000   1.0000
     1.0000   1.0000   1.0000   1.0000   1.0000   1.0000   1.0000   1.0000
     1.0000   1.0000   1.0000   1.0000   1.0000   1.0000   1.0000   1.0000

          k = 0.0707 0.3536 0.4950 (  4662 PWs)   bands (ev):

    -4.9733  -4.5700  -4.1719  -3.7619  -3.0472  -2.8742  -2.7283  -2.3868
    -0.8626  -0.6818  -0.5192  -0.1281   0.7391   1.0256   1.5609   1.7498
     2.1327   2.2712   2.3243   2.6111   2.9174   3.3364   3.5492   3.5712
     3.6611   3.6628   3.7703   4.0349   4.0454   4.2639   4.7601   5.3679

     occupation numbers 
     1.0000   1.0000   1.0000   1.0000   1.0000   1.0000   1.0000   1.0000
     1.0000   1.0000   1.0000   1.0000   1.0000   1.0000   1.0000   1.0000
     1.0000   1.0000   1.0000   1.0000   1.0000   1.0000   1.0000   1.0000
     1.0000   1.0000   1.0000   1.0000   1.0000   1.0000   1.0000   1.0000

          k = 0.4950-0.0707-0.3536 (  4662 PWs)   bands (ev):

    -4.9733  -4.5705  -4.1708  -3.7624  -3.0480  -2.8731  -2.7309  -2.3836
    -0.8681  -0.6767  -0.5211  -0.1264   0.7414   1.0186   1.5658   1.7505
     2.1328   2.2689   2.3267   2.6103   2.9191   3.3328   3.5516   3.5750
     3.6581   3.6650   3.7666   4.0319   4.0454   4.2680   4.7555   5.3718

     occupation numbers 
     1.0000   1.0000   1.0000   1.0000   1.0000   1.0000   1.0000   1.0000
     1.0000   1.0000   1.0000   1.0000   1.0000   1.0000   1.0000   1.0000
     1.0000   1.0000   1.0000   1.0000   1.0000   1.0000   1.0000   1.0000
     1.0000   1.0000   1.0000   1.0000   1.0000   1.0000   1.0000   1.0000

          k =-0.3536 0.4950-0.0707 (  4662 PWs)   bands (ev):

    -4.9733  -4.5701  -4.1718  -3.7621  -3.0469  -2.8722  -2.7307  -2.3869
    -0.8625  -0.6772  -0.5236  -0.1291   0.7401   1.0250   1.5615   1.7500
     2.1329   2.2708   2.3250   2.6109   2.9167   3.3364   3.5469   3.5741
     3.6581   3.6631   3.7704   4.0346   4.0487   4.2670   4.7564   5.3678

     occupation numbers 
     1.0000   1.0000   1.0000   1.0000   1.0000   1.0000   1.0000   1.0000
     1.0000   1.0000   1.0000   1.0000   1.0000   1.0000   1.0000   1.0000
     1.0000   1.0000   1.0000   1.0000   1.0000   1.0000   1.0000   1.0000
[...]
     1.0000   1.0000   1.0000   1.0000   1.0000   1.0000   1.0000   1.0000
     1.0000   1.0000   1.0000   1.0000   1.0000   1.0000   1.0000   1.0000
     1.0000   1.0000   1.0000   1.0000   1.0000   1.0000   1.0000   1.0000

          k = 0.9192 0.2121-0.2121 (  4675 PWs)   bands (ev):

    -5.0554  -4.6555  -3.8333  -3.5227  -3.5177  -2.8135  -2.5359  -2.5309
    -0.7240  -0.7194  -0.6682   0.1291   0.1343   0.8041   1.5676   2.0832
     2.0852   2.1389   2.6953   2.8173   2.8208   3.1916   3.2991   3.3019
     3.8015   3.9615   3.9685   4.0541   4.0885   4.8214   4.9475   5.2843

     occupation numbers 
     1.0000   1.0000   1.0000   1.0000   1.0000   1.0000   1.0000   1.0000
     1.0000   1.0000   1.0000   1.0000   1.0000   1.0000   1.0000   1.0000
     1.0000   1.0000   1.0000   1.0000   1.0000   1.0000   1.0000   1.0000
     1.0000   1.0000   1.0000   1.0000   1.0000   1.0000   1.0000   1.0000

          k =-0.9192 0.2121 0.2121 (  4675 PWs)   bands (ev):

    -5.0553  -4.6558  -3.8341  -3.5213  -3.5163  -2.8179  -2.5348  -2.5297
    -0.7261  -0.7218  -0.6590   0.1248   0.1299   0.8084   1.5693   2.0843
     2.0864   2.1380   2.6934   2.8150   2.8185   3.1914   3.2989   3.3015
     3.7980   3.9678   3.9747   4.0502   4.0924   4.8158   4.9560   5.2767

     occupation numbers 
     1.0000   1.0000   1.0000   1.0000   1.0000   1.0000   1.0000   1.0000
     1.0000   1.0000   1.0000   1.0000   1.0000   1.0000   1.0000   1.0000
     1.0000   1.0000   1.0000   1.0000   1.0000   1.0000   1.0000   1.0000
     1.0000   1.0000   1.0000   1.0000   1.0000   1.0000   1.0000   1.0000

          k = 0.9192-0.2121 0.2121 (  4675 PWs)   bands (ev):

    -5.0552  -4.6551  -3.8339  -3.5227  -3.5177  -2.8152  -2.5360  -2.5310
    -0.7232  -0.7188  -0.6645   0.1296   0.1349   0.8075   1.5649   2.0808
     2.0841   2.1367   2.6914   2.8152   2.8178   3.1881   3.3001   3.3030
     3.8017   3.9650   3.9696   4.0545   4.0911   4.8209   4.9524   5.2835

     occupation numbers 
     1.0000   1.0000   1.0000   1.0000   1.0000   1.0000   1.0000   1.0000
     1.0000   1.0000   1.0000   1.0000   1.0000   1.0000   1.0000   1.0000
     1.0000   1.0000   1.0000   1.0000   1.0000   1.0000   1.0000   1.0000
     1.0000   1.0000   1.0000   1.0000   1.0000   1.0000   1.0000   1.0000

          k = 0.3536-0.7778-0.0707 (  4670 PWs)   bands (ev):

    -4.6480  -4.6409  -4.2401  -4.2394  -2.8416  -2.8351  -2.6109  -2.6055
    -0.6343  -0.6281  -0.3751  -0.3727   1.3747   1.3791   1.8217   1.8220
     1.9868   1.9933   2.0232   2.0284   3.2247   3.2280   3.4119   3.4173
     3.5525   3.5564   3.6023   3.6089   4.2889   4.2945   4.8593   4.8638

     occupation numbers 
     1.0000   1.0000   1.0000   1.0000   1.0000   1.0000   1.0000   1.0000
     1.0000   1.0000   1.0000   1.0000   1.0000   1.0000   1.0000   1.0000
     1.0000   1.0000   1.0000   1.0000   1.0000   1.0000   1.0000   1.0000
     1.0000   1.0000   1.0000   1.0000   1.0000   1.0000   1.0000   1.0000

          k =-0.3536 0.7778-0.0707 (  4670 PWs)   bands (ev):

    -4.6447  -4.6445  -4.2431  -4.2361  -2.8416  -2.8361  -2.6103  -2.6047
    -0.6349  -0.6306  -0.3767  -0.3687   1.3717   1.3789   1.8197   1.8251
     1.9900   1.9932   2.0247   2.0271   3.2270   3.2302   3.4115   3.4161
     3.5529   3.5565   3.6010   3.6063   4.2888   4.2929   4.8585   4.8657

     occupation numbers 
     1.0000   1.0000   1.0000   1.0000   1.0000   1.0000   1.0000   1.0000
     1.0000   1.0000   1.0000   1.0000   1.0000   1.0000   1.0000   1.0000
     1.0000   1.0000   1.0000   1.0000   1.0000   1.0000   1.0000   1.0000
     1.0000   1.0000   1.0000   1.0000   1.0000   1.0000   1.0000   1.0000

          k =-0.7778-0.3536-0.0707 (  4670 PWs)   bands (ev):

    -4.6486  -4.6413  -4.2430  -4.2356  -2.8382  -2.8347  -2.6120  -2.6074
    -0.6313  -0.6262  -0.3829  -0.3742   1.3707   1.3747   1.8213   1.8268
     1.9932   1.9983   2.0256   2.0277   3.2274   3.2287   3.4155   3.4181
     3.5497   3.5525   3.6029   3.6043   4.2911   4.2986   4.8522   4.8617

     occupation numbers 
     1.0000   1.0000   1.0000   1.0000   1.0000   1.0000   1.0000   1.0000
     1.0000   1.0000   1.0000   1.0000   1.0000   1.0000   1.0000   1.0000
     1.0000   1.0000   1.0000   1.0000   1.0000   1.0000   1.0000   1.0000
     1.0000   1.0000   1.0000   1.0000   1.0000   1.0000   1.0000   1.0000

          k = 0.7778 0.3536-0.0707 (  4670 PWs)   bands (ev):

    -4.6449  -4.6445  -4.2399  -4.2391  -2.8388  -2.8369  -2.6103  -2.6066
    -0.6346  -0.6273  -0.3771  -0.3730   1.3720   1.3780   1.8226   1.8228
     1.9904   1.9950   2.0249   2.0271   3.2274   3.2280   3.4126   3.4176
     3.5515   3.5551   3.6042   3.6044   4.2895   4.2954   4.8572   4.8633

     occupation numbers 
     1.0000   1.0000   1.0000   1.0000   1.0000   1.0000   1.0000   1.0000
     1.0000   1.0000   1.0000   1.0000   1.0000   1.0000   1.0000   1.0000
     1.0000   1.0000   1.0000   1.0000   1.0000   1.0000   1.0000   1.0000
     1.0000   1.0000   1.0000   1.0000   1.0000   1.0000   1.0000   1.0000

          k = 0.7778-0.3536 0.0707 (  4670 PWs)   bands (ev):

    -4.6480  -4.6407  -4.2435  -4.2361  -2.8410  -2.8375  -2.6095  -2.6050
    -0.6356  -0.6305  -0.3759  -0.3673   1.3753   1.3793   1.8186   1.8243
     1.9866   1.9919   2.0243   2.0267   3.2266   3.2279   3.4121   3.4147
     3.5544   3.5571   3.6042   3.6054   4.2864   4.2938   4.8586   4.8683

     occupation numbers 
     1.0000   1.0000   1.0000   1.0000   1.0000   1.0000   1.0000   1.0000
     1.0000   1.0000   1.0000   1.0000   1.0000   1.0000   1.0000   1.0000
     1.0000   1.0000   1.0000   1.0000   1.0000   1.0000   1.0000   1.0000
     1.0000   1.0000   1.0000   1.0000   1.0000   1.0000   1.0000   1.0000

          k = 0.0707-0.7778 0.3536 (  4670 PWs)   bands (ev):

    -4.6450  -4.6446  -4.2430  -4.2360  -2.8397  -2.8342  -2.6122  -2.6067
    -0.6312  -0.6269  -0.3815  -0.3733   1.3710   1.3782   1.8204   1.8259
     1.9921   1.9942   2.0245   2.0285   3.2251   3.2284   3.4141   3.4183
     3.5499   3.5541   3.6025   3.6078   4.2920   4.2961   4.8548   4.8619

     occupation numbers 
     1.0000   1.0000   1.0000   1.0000   1.0000   1.0000   1.0000   1.0000
     1.0000   1.0000   1.0000   1.0000   1.0000   1.0000   1.0000   1.0000
     1.0000   1.0000   1.0000   1.0000   1.0000   1.0000   1.0000   1.0000
     1.0000   1.0000   1.0000   1.0000   1.0000   1.0000   1.0000   1.0000

          k =-0.3536-0.3536 0.3536 (  4664 PWs)   bands (ev):

    -4.9819  -4.9748  -3.1154  -3.1063  -3.1057  -3.1042  -3.1036  -3.0972
    -0.2973  -0.2962  -0.2961  -0.2936  -0.2926  -0.2829   2.1185   2.1242
     2.5233   2.5313   2.5338   2.5365   2.5379   2.5380   3.8234   3.8240
     3.8255   3.8290   3.8313   3.8369   5.2325   5.2326   5.2356   5.2455

     occupation numbers 
     1.0000   1.0000   1.0000   1.0000   1.0000   1.0000   1.0000   1.0000
     1.0000   1.0000   1.0000   1.0000   1.0000   1.0000   1.0000   1.0000
     1.0000   1.0000   1.0000   1.0000   1.0000   1.0000   1.0000   1.0000
     1.0000   1.0000   1.0000   1.0000   1.0000   1.0000   1.0000   1.0000

          k = 0.3536 0.3536 0.3536 (  4664 PWs)   bands (ev):

    -4.9787  -4.9786  -3.1145  -3.1058  -3.1049  -3.1049  -3.1039  -3.0952
    -0.3069  -0.2974  -0.2950  -0.2950  -0.2926  -0.2831   2.1245   2.1246
     2.5302   2.5348   2.5364   2.5364   2.5380   2.5427   3.8216   3.8265
     3.8268   3.8268   3.8272   3.8320   5.2264   5.2348   5.2352   5.2438

     occupation numbers 
     1.0000   1.0000   1.0000   1.0000   1.0000   1.0000   1.0000   1.0000
     1.0000   1.0000   1.0000   1.0000   1.0000   1.0000   1.0000   1.0000
     1.0000   1.0000   1.0000   1.0000   1.0000   1.0000   1.0000   1.0000
     1.0000   1.0000   1.0000   1.0000   1.0000   1.0000   1.0000   1.0000

     highest occupied level (ev):     5.9287

!    total energy              =    -125.93392742 Ry
     estimated scf accuracy    <       0.00000004 Ry

     The total energy is the sum of the following terms:
     one-electron contribution =      36.72919798 Ry
     hartree contribution      =       8.92310457 Ry
     xc contribution           =     -38.29509117 Ry
     ewald contribution        =    -133.29113880 Ry

     convergence has been achieved in   7 iterations

     Forces acting on atoms (cartesian axes, Ry/au):

     atom    1 type  1   force =     0.00380161    0.00006238   -0.00380161
     atom    2 type  1   force =    -0.00026111   -0.00000214    0.00026111
     atom    3 type  1   force =     0.00024567    0.00013368    0.00013042
     atom    4 type  1   force =    -0.00012926   -0.00012853   -0.00024632
     atom    5 type  1   force =    -0.00013042    0.00013368   -0.00024567
     atom    6 type  1   force =     0.00024632   -0.00012853    0.00012926
     atom    7 type  1   force =     0.00000138   -0.00000199   -0.00000138
     atom    8 type  1   force =    -0.00002405   -0.00000158    0.00002405
     atom    9 type  1   force =    -0.00000095    0.00008411    0.00000095
     atom   10 type  1   force =    -0.00000210   -0.00008392    0.00000210
     atom   11 type  1   force =     0.00008057    0.00000168   -0.00008377
     atom   12 type  1   force =    -0.00036259   -0.00000525    0.00036769
     atom   13 type  1   force =     0.00008377    0.00000168   -0.00008057
     atom   14 type  1   force =    -0.00036769   -0.00000525    0.00036259
     atom   15 type  1   force =    -0.00160986   -0.00125545    0.00160986
     atom   16 type  1   force =    -0.00157129    0.00119541    0.00157129
     The non-local contrib.  to forces
     atom    1 type  1   force =     0.00442693    0.00008806   -0.00442693
     atom    2 type  1   force =    -0.00013206    0.00000236    0.00013206
     atom    3 type  1   force =    -0.00031063    0.00002284    0.00011221
     atom    4 type  1   force =    -0.00010918   -0.00001874    0.00030944
     atom    5 type  1   force =    -0.00011221    0.00002284    0.00031063
     atom    6 type  1   force =    -0.00030944   -0.00001874    0.00010918
     atom    7 type  1   force =    -0.00009104   -0.00000318    0.00009104
     atom    8 type  1   force =     0.00006640   -0.00000168   -0.00006640
     atom    9 type  1   force =     0.00001112   -0.00012668   -0.00001112
     atom   10 type  1   force =     0.00001119    0.00012434   -0.00001119
     atom   11 type  1   force =    -0.00011486    0.00000118    0.00011603
     atom   12 type  1   force =     0.00051129   -0.00001130   -0.00048303
     atom   13 type  1   force =    -0.00011603    0.00000118    0.00011486
     atom   14 type  1   force =     0.00048303   -0.00001130   -0.00051129
     atom   15 type  1   force =    -0.00212302   -0.00263506    0.00212302
     atom   16 type  1   force =    -0.00207564    0.00256087    0.00207564
     The ionic contribution  to forces
     atom    1 type  1   force =     0.01283849    0.00017163   -0.01283849
     atom    2 type  1   force =    -0.00469620    0.00000000    0.00469620
     atom    3 type  1   force =     0.00091518    0.00295468    0.00174139
     atom    4 type  1   force =    -0.00174139   -0.00295468   -0.00091518
     atom    5 type  1   force =    -0.00174139    0.00295468   -0.00091518
     atom    6 type  1   force =     0.00091518   -0.00295468    0.00174139
     atom    7 type  1   force =     0.00121327    0.00000000   -0.00121327
     atom    8 type  1   force =    -0.00085588    0.00000000    0.00085588
     atom    9 type  1   force =    -0.00016454   -0.00137840    0.00016454
     atom   10 type  1   force =    -0.00016857    0.00137887    0.00016857
     atom   11 type  1   force =    -0.00155126    0.00000829    0.00153918
     atom   12 type  1   force =     0.00420058   -0.00002906   -0.00414625
     atom   13 type  1   force =    -0.00153918    0.00000829    0.00155126
     atom   14 type  1   force =     0.00414625   -0.00002906   -0.00420058
     atom   15 type  1   force =    -0.00589433   -0.01012446    0.00589433
     atom   16 type  1   force =    -0.00587622    0.00999390    0.00587622
     The local contribution  to forces
     atom    1 type  1   force =    -0.01344497   -0.00018319    0.01344497
     atom    2 type  1   force =     0.00454452    0.00000312   -0.00454452
     atom    3 type  1   force =    -0.00035634   -0.00282717   -0.00173099
     atom    4 type  1   force =     0.00172274    0.00280531    0.00036359
     atom    5 type  1   force =     0.00173099   -0.00282717    0.00035634
     atom    6 type  1   force =    -0.00036359    0.00280531   -0.00172274
     atom    7 type  1   force =    -0.00108721    0.00001586    0.00108721
     atom    8 type  1   force =     0.00072962    0.00000867   -0.00072962
     atom    9 type  1   force =     0.00015174    0.00156006   -0.00015174
     atom   10 type  1   force =     0.00015926   -0.00155322   -0.00015926
     atom   11 type  1   force =     0.00172102   -0.00001646   -0.00170671
     atom   12 type  1   force =    -0.00504868    0.00003547    0.00497007
     atom   13 type  1   force =     0.00170671   -0.00001646   -0.00172102
     atom   14 type  1   force =    -0.00497007    0.00003547    0.00504868
     atom   15 type  1   force =     0.00640358    0.01148675   -0.00640358
     atom   16 type  1   force =     0.00638971   -0.01133084   -0.00638971
     The core correction contribution to forces
     atom    1 type  1   force =     0.00000000    0.00000000    0.00000000
     atom    2 type  1   force =     0.00000000    0.00000000    0.00000000
     atom    3 type  1   force =     0.00000000    0.00000000    0.00000000
     atom    4 type  1   force =     0.00000000    0.00000000    0.00000000
     atom    5 type  1   force =     0.00000000    0.00000000    0.00000000
     atom    6 type  1   force =     0.00000000    0.00000000    0.00000000
     atom    7 type  1   force =     0.00000000    0.00000000    0.00000000
     atom    8 type  1   force =     0.00000000    0.00000000    0.00000000
     atom    9 type  1   force =     0.00000000    0.00000000    0.00000000
     atom   10 type  1   force =     0.00000000    0.00000000    0.00000000
     atom   11 type  1   force =     0.00000000    0.00000000    0.00000000
     atom   12 type  1   force =     0.00000000    0.00000000    0.00000000
     atom   13 type  1   force =     0.00000000    0.00000000    0.00000000
     atom   14 type  1   force =     0.00000000    0.00000000    0.00000000
     atom   15 type  1   force =     0.00000000    0.00000000    0.00000000
     atom   16 type  1   force =     0.00000000    0.00000000    0.00000000
     The Hubbard contrib.    to forces
     atom    1 type  1   force =     0.00000000    0.00000000    0.00000000
     atom    2 type  1   force =     0.00000000    0.00000000    0.00000000
     atom    3 type  1   force =     0.00000000    0.00000000    0.00000000
     atom    4 type  1   force =     0.00000000    0.00000000    0.00000000
     atom    5 type  1   force =     0.00000000    0.00000000    0.00000000
     atom    6 type  1   force =     0.00000000    0.00000000    0.00000000
     atom    7 type  1   force =     0.00000000    0.00000000    0.00000000
     atom    8 type  1   force =     0.00000000    0.00000000    0.00000000
     atom    9 type  1   force =     0.00000000    0.00000000    0.00000000
     atom   10 type  1   force =     0.00000000    0.00000000    0.00000000
     atom   11 type  1   force =     0.00000000    0.00000000    0.00000000
     atom   12 type  1   force =     0.00000000    0.00000000    0.00000000
     atom   13 type  1   force =     0.00000000    0.00000000    0.00000000
     atom   14 type  1   force =     0.00000000    0.00000000    0.00000000
     atom   15 type  1   force =     0.00000000    0.00000000    0.00000000
     atom   16 type  1   force =     0.00000000    0.00000000    0.00000000
     The SCF correction term to forces
     atom    1 type  1   force =    -0.00001850   -0.00001418    0.00001850
     atom    2 type  1   force =     0.00002297   -0.00000768   -0.00002297
     atom    3 type  1   force =    -0.00000220   -0.00001671    0.00000747
     atom    4 type  1   force =    -0.00000109    0.00003952   -0.00000451
     atom    5 type  1   force =    -0.00000747   -0.00001671    0.00000220
     atom    6 type  1   force =     0.00000451    0.00003952    0.00000109
     atom    7 type  1   force =    -0.00003328   -0.00001472    0.00003328
     atom    8 type  1   force =     0.00003615   -0.00000863   -0.00003615
     atom    9 type  1   force =     0.00000108    0.00002908   -0.00000108
     atom   10 type  1   force =    -0.00000365   -0.00003397    0.00000365
     atom   11 type  1   force =     0.00002603    0.00000861   -0.00003262
     atom   12 type  1   force =    -0.00002544   -0.00000042    0.00002656
     atom   13 type  1   force =     0.00003262    0.00000861   -0.00002603
     atom   14 type  1   force =    -0.00002656   -0.00000042    0.00002544
     atom   15 type  1   force =     0.00000425    0.00001726   -0.00000425
     atom   16 type  1   force =    -0.00000879   -0.00002857    0.00000879

     Total force =     0.006567     Total SCF correction =     0.000144

     Writing output data file ../tmp/Si_exc1.save/

     init_run     :    127.31s CPU     36.43s WALL (       1 calls)
     electrons    :   3234.11s CPU    598.54s WALL (       1 calls)
     forces       :     58.92s CPU      5.77s WALL (       1 calls)

     Called by init_run:
     wfcinit      :    127.05s CPU     36.15s WALL (       1 calls)
     wfcinit:atom :     20.23s CPU      1.74s WALL (     141 calls)
     wfcinit:wfcr :     74.01s CPU     29.70s WALL (     141 calls)
     potinit      :      0.06s CPU      0.07s WALL (       1 calls)
     hinit0       :      0.04s CPU      0.04s WALL (       1 calls)

     Called by electrons:
     c_bands      :   3172.42s CPU    540.84s WALL (       8 calls)
     sum_band     :     59.90s CPU     57.16s WALL (       8 calls)
     v_of_rho     :      1.39s CPU      0.52s WALL (       8 calls)
     v_h          :      0.03s CPU      0.03s WALL (       8 calls)
     v_xc         :      1.37s CPU      0.49s WALL (       8 calls)
     mix_rho      :      0.37s CPU      0.06s WALL (       8 calls)

     Called by c_bands:
     init_us_2    :    102.06s CPU     10.91s WALL (    2538 calls)
     cegterg      :   2954.95s CPU    522.36s WALL (    1128 calls)

     Called by sum_band:
     sum_band:wei :      0.00s CPU      0.00s WALL (       8 calls)
     sum_band:loo :     59.81s CPU     57.09s WALL (       8 calls)
     sum_band:buf :      0.40s CPU      0.34s WALL (    1128 calls)
     sum_band:ini :      3.11s CPU      2.63s WALL (    1128 calls)

     Called by *egterg:
     cdiaghg      :    233.26s CPU     21.07s WALL (    4690 calls)
     cegterg:over :    223.40s CPU     21.65s WALL (    3703 calls)
     cegterg:upda :    124.97s CPU     10.51s WALL (    3703 calls)
     cegterg:last :    148.29s CPU     12.94s WALL (    2734 calls)
     h_psi        :   2104.78s CPU    467.49s WALL (    4972 calls)
     g_psi        :     57.72s CPU      5.55s WALL (    3703 calls)

     Called by h_psi:
     h_psi:calbec :    137.87s CPU     14.44s WALL (    4972 calls)
     vloc_psi     :   1752.32s CPU    432.64s WALL (    4972 calls)
     add_vuspsi   :    176.54s CPU     16.70s WALL (    4972 calls)

     General routines
     calbec       :    164.93s CPU     17.23s WALL (    5536 calls)
     fft          :      0.57s CPU      0.26s WALL (      82 calls)
     ffts         :      0.02s CPU      0.02s WALL (       8 calls)
     fftw         :   1648.83s CPU    443.34s WALL (  275210 calls)


     PWSCF        :  57m 0.59s CPU  10m41.26s WALL


   This run was terminated on:  18:32:53  20Mar2023            

=------------------------------------------------------------------------------=
   JOB DONE.
=------------------------------------------------------------------------------=
