
     Program PWSCF v.6.6 starts on 20Mar2023 at 17:45: 5 

     This program is part of the open-source Quantum ESPRESSO suite
     for quantum simulation of materials; please cite
         "P. Giannozzi et al., J. Phys.:Condens. Matter 21 395502 (2009);
         "P. Giannozzi et al., J. Phys.:Condens. Matter 29 465901 (2017);
          URL http://www.quantum-espresso.org", 
     in publications or presentations arising from this work. More details at
     http://www.quantum-espresso.org/quote

     Serial version
     Fft bands division:     nmany     =       1
     Waiting for input...
     Reading input from standard input

     Current dimensions of program PWSCF are:
     Max number of different atomic species (ntypx) = 10
     Max number of k-points (npk) =  40000
     Max angular momentum in pseudopotentials (lmaxx) =  3

     File ../tmp/Si_exc1.update deleted, as requested

     G-vector sticks info
     --------------------
     sticks:   dense  smooth     PW     G-vecs:    dense   smooth      PW
     Sum         361     361    121                 4573     4573     941



     bravais-lattice index     =            2
     lattice parameter (alat)  =      10.2612  a.u.
     unit-cell volume          =     270.1072 (a.u.)^3
     number of atoms/cell      =            2
     number of atomic types    =            1
     number of electrons       =         8.00
     number of Kohn-Sham states=            4
     kinetic-energy cutoff     =      25.0000  Ry
     charge density cutoff     =     100.0000  Ry
     convergence threshold     =      1.0E-07
     mixing beta               =       0.6000
     number of iterations used =            8  plain     mixing
     Exchange-correlation=  SLA  PW   PBE  PBE
                           (   1   4   3   4   0   0   0)
     nstep                     =           50


     celldm(1)=  10.261213  celldm(2)=   0.000000  celldm(3)=   0.000000
     celldm(4)=   0.000000  celldm(5)=   0.000000  celldm(6)=   0.000000

     crystal axes: (cart. coord. in units of alat)
               a(1) = (  -0.500000   0.000000   0.500000 )  
               a(2) = (   0.000000   0.500000   0.500000 )  
               a(3) = (  -0.500000   0.500000   0.000000 )  

     reciprocal axes: (cart. coord. in units 2 pi/alat)
               b(1) = ( -1.000000 -1.000000  1.000000 )  
               b(2) = (  1.000000  1.000000  1.000000 )  
               b(3) = ( -1.000000  1.000000 -1.000000 )  


     PseudoPot. # 1 for Si read from file:
     ../pseudo/Si.pbe-rrkj.UPF
     MD5 check sum: cf7ab5690cd9a85b22c4813f7e365554
     Pseudo is Norm-conserving, Zval =  4.0
     Generated by new atomic code, or converted to UPF format
     Using radial grid of  883 points,  3 beta functions with: 
                l(1) =   0
                l(2) =   0
                l(3) =   1

     atomic species   valence    mass     pseudopotential
        Si             4.00    28.08600     Si( 1.00)

     48 Sym. Ops., with inversion, found (24 have fractional translation)



   Cartesian axes

     site n.     atom                  positions (alat units)
         1           Si  tau(   1) = (   0.0000000   0.0000000   0.0000000  )
         2           Si  tau(   2) = (  -0.7500000   0.7500000   0.7500000  )

     number of k points=   110

     Number of k-points >= 100: set verbosity='high' to print them.

     Dense  grid:     4573 G-vectors     FFT dimensions: (  24,  24,  24)

     Estimated max dynamical RAM per process >       7.22 MB

     Initial potential from superposition of free atoms

     starting charge    7.99889, renormalised to    8.00000
     Starting wfcs are    8 randomized atomic wfcs

     total cpu time spent up to now is        1.1 secs

     Self-consistent Calculation

     iteration #  1     ecut=    25.00 Ry     beta= 0.60
     Davidson diagonalization with overlap
     ethr =  1.00E-02,  avg # of iterations =  2.0

     Threshold (ethr) on eigenvalues was too large:
     Diagonalizing with lowered threshold

     Davidson diagonalization with overlap
     ethr =  5.94E-04,  avg # of iterations =  1.9

     total cpu time spent up to now is        3.5 secs

     total energy              =     -15.73958994 Ry
     estimated scf accuracy    <       0.05564296 Ry

     iteration #  2     ecut=    25.00 Ry     beta= 0.60
     Davidson diagonalization with overlap
     ethr =  6.96E-04,  avg # of iterations =  1.0

     total cpu time spent up to now is        4.5 secs

     total energy              =     -15.74030852 Ry
     estimated scf accuracy    <       0.00659251 Ry

     iteration #  3     ecut=    25.00 Ry     beta= 0.60
     Davidson diagonalization with overlap
     ethr =  8.24E-05,  avg # of iterations =  2.0

     total cpu time spent up to now is        5.6 secs

     total energy              =     -15.74113489 Ry
     estimated scf accuracy    <       0.00015843 Ry

     iteration #  4     ecut=    25.00 Ry     beta= 0.60
     Davidson diagonalization with overlap
     ethr =  1.98E-06,  avg # of iterations =  4.0

     total cpu time spent up to now is        7.2 secs

     total energy              =     -15.74121748 Ry
     estimated scf accuracy    <       0.00003599 Ry

     iteration #  5     ecut=    25.00 Ry     beta= 0.60
     Davidson diagonalization with overlap
     ethr =  4.50E-07,  avg # of iterations =  2.9

     total cpu time spent up to now is        8.5 secs

     total energy              =     -15.74122602 Ry
     estimated scf accuracy    <       0.00000081 Ry

     iteration #  6     ecut=    25.00 Ry     beta= 0.60
     Davidson diagonalization with overlap
     ethr =  1.01E-08,  avg # of iterations =  4.6

     total cpu time spent up to now is       10.3 secs

     End of self-consistent calculation

     Number of k-points >= 100: set verbosity='high' to print the bands.

     highest occupied level (ev):     6.1762

!    total energy              =     -15.74122678 Ry
     estimated scf accuracy    <       0.00000003 Ry

     The total energy is the sum of the following terms:
     one-electron contribution =       4.77651226 Ry
     hartree contribution      =       1.09405707 Ry
     xc contribution           =      -4.81285243 Ry
     ewald contribution        =     -16.79894368 Ry

     convergence has been achieved in   6 iterations

     Forces acting on atoms (cartesian axes, Ry/au):

     atom    1 type  1   force =     0.00000000    0.00000000    0.00000000
     atom    2 type  1   force =     0.00000000    0.00000000    0.00000000

     Total force =     0.000000     Total SCF correction =     0.000000


     Computing stress (Cartesian axis) and pressure

          total   stress  (Ry/bohr**3)                   (kbar)     P=       22.56
   0.00015338   0.00000000   0.00000000           22.56        0.00        0.00
   0.00000000   0.00015338  -0.00000000            0.00       22.56       -0.00
   0.00000000  -0.00000000   0.00015338            0.00       -0.00       22.56


     BFGS Geometry Optimization

     number of scf cycles    =   1
     number of bfgs steps    =   0

     enthalpy new            =     -15.7412267825 Ry

     new trust radius        =       0.0126042545 bohr
     new conv_thr            =       0.0000001000 Ry

     new unit-cell volume =    273.22635 a.u.^3 (    40.48797 Ang^3 )
     density =      2.30379 g/cm^3

CELL_PARAMETERS (alat= 10.26121290)
  -0.501917296  -0.000000000   0.501917296
   0.000000000   0.501917296   0.501917296
  -0.501917296   0.501917296  -0.000000000

ATOMIC_POSITIONS (crystal)
Si            0.0000000000        0.0000000000        0.0000000000
Si            0.7500000000        0.7500000000        0.7500000000



     Writing output data file ../tmp/Si_exc1.save/
     NEW-OLD atomic charge density approx. for the potential
     extrapolated charge    8.09132, renormalised to    8.00000

     total cpu time spent up to now is       10.8 secs

     Self-consistent Calculation

     iteration #  1     ecut=    25.00 Ry     beta= 0.60
     Davidson diagonalization with overlap
     ethr =  1.00E-06,  avg # of iterations =  3.4

     total cpu time spent up to now is       12.4 secs

     total energy              =     -15.74150701 Ry
     estimated scf accuracy    <       0.00004096 Ry

     iteration #  2     ecut=    25.00 Ry     beta= 0.60
     Davidson diagonalization with overlap
     ethr =  5.12E-07,  avg # of iterations =  3.2

     total cpu time spent up to now is       14.0 secs

     total energy              =     -15.74159288 Ry
     estimated scf accuracy    <       0.00002469 Ry

     iteration #  3     ecut=    25.00 Ry     beta= 0.60
     Davidson diagonalization with overlap
     ethr =  3.09E-07,  avg # of iterations =  1.0

     total cpu time spent up to now is       15.0 secs

     total energy              =     -15.74158934 Ry
     estimated scf accuracy    <       0.00000936 Ry

     iteration #  4     ecut=    25.00 Ry     beta= 0.60
     Davidson diagonalization with overlap
     ethr =  1.17E-07,  avg # of iterations =  2.0

     total cpu time spent up to now is       16.4 secs

     total energy              =     -15.74159061 Ry
     estimated scf accuracy    <       0.00000089 Ry

     iteration #  5     ecut=    25.00 Ry     beta= 0.60
     Davidson diagonalization with overlap
     ethr =  1.12E-08,  avg # of iterations =  1.2

     total cpu time spent up to now is       17.4 secs

     total energy              =     -15.74159048 Ry
     estimated scf accuracy    <       0.00000039 Ry

     iteration #  6     ecut=    25.00 Ry     beta= 0.60
     Davidson diagonalization with overlap
     ethr =  4.92E-09,  avg # of iterations =  2.4

     total cpu time spent up to now is       18.7 secs

     total energy              =     -15.74159050 Ry
     estimated scf accuracy    <       0.00000026 Ry

     iteration #  7     ecut=    25.00 Ry     beta= 0.60
     Davidson diagonalization with overlap
     ethr =  3.23E-09,  avg # of iterations =  1.0

     total cpu time spent up to now is       19.7 secs

     End of self-consistent calculation

     Number of k-points >= 100: set verbosity='high' to print the bands.

     highest occupied level (ev):     6.0571

!    total energy              =     -15.74159051 Ry
     estimated scf accuracy    <       0.00000001 Ry

     The total energy is the sum of the following terms:
     one-electron contribution =       4.68990280 Ry
     hartree contribution      =       1.10402718 Ry
     xc contribution           =      -4.80074781 Ry
     ewald contribution        =     -16.73477267 Ry

     convergence has been achieved in   7 iterations

     Forces acting on atoms (cartesian axes, Ry/au):

     atom    1 type  1   force =     0.00000000   -0.00000000   -0.00000000
     atom    2 type  1   force =    -0.00000000    0.00000000    0.00000000

     Total force =     0.000000     Total SCF correction =     0.000000


     Computing stress (Cartesian axis) and pressure

          total   stress  (Ry/bohr**3)                   (kbar)     P=       11.84
   0.00008051  -0.00000000  -0.00000000           11.84       -0.00       -0.00
  -0.00000000   0.00008051   0.00000000           -0.00       11.84        0.00
  -0.00000000   0.00000000   0.00008051           -0.00        0.00       11.84


     number of scf cycles    =   2
     number of bfgs steps    =   1

     enthalpy old            =     -15.7412267825 Ry
     enthalpy new            =     -15.7415905082 Ry

     CASE: enthalpy_new < enthalpy_old

     new trust radius        =       0.0138912372 bohr
     new conv_thr            =       0.0000000010 Ry

     new unit-cell volume =    276.68508 a.u.^3 (    41.00050 Ang^3 )
     density =      2.27499 g/cm^3

CELL_PARAMETERS (alat= 10.26121290)
  -0.504026321   0.000000000   0.504026321
  -0.000000000   0.504026321   0.504026321
  -0.504026321   0.504026321   0.000000000

ATOMIC_POSITIONS (crystal)
Si           -0.0000000000       -0.0000000000       -0.0000000000
Si            0.7500000000        0.7500000000        0.7500000000



     Writing output data file ../tmp/Si_exc1.save/
     NEW-OLD atomic charge density approx. for the potential
     extrapolated charge    8.09999, renormalised to    8.00000

     total cpu time spent up to now is       20.3 secs

     Self-consistent Calculation

     iteration #  1     ecut=    25.00 Ry     beta= 0.60
     Davidson diagonalization with overlap
     ethr =  1.00E-06,  avg # of iterations =  3.7

     total cpu time spent up to now is       22.1 secs

     total energy              =     -15.74163243 Ry
     estimated scf accuracy    <       0.00005109 Ry

     iteration #  2     ecut=    25.00 Ry     beta= 0.60
     Davidson diagonalization with overlap
     ethr =  6.39E-07,  avg # of iterations =  3.2

     total cpu time spent up to now is       23.8 secs

     total energy              =     -15.74173691 Ry
     estimated scf accuracy    <       0.00002961 Ry

     iteration #  3     ecut=    25.00 Ry     beta= 0.60
     Davidson diagonalization with overlap
     ethr =  3.70E-07,  avg # of iterations =  1.0

     total cpu time spent up to now is       24.8 secs

     total energy              =     -15.74173278 Ry
     estimated scf accuracy    <       0.00001112 Ry

     iteration #  4     ecut=    25.00 Ry     beta= 0.60
     Davidson diagonalization with overlap
     ethr =  1.39E-07,  avg # of iterations =  2.0

     total cpu time spent up to now is       26.1 secs

     total energy              =     -15.74173427 Ry
     estimated scf accuracy    <       0.00000127 Ry

     iteration #  5     ecut=    25.00 Ry     beta= 0.60
     Davidson diagonalization with overlap
     ethr =  1.59E-08,  avg # of iterations =  1.1

     total cpu time spent up to now is       27.0 secs

     total energy              =     -15.74173412 Ry
     estimated scf accuracy    <       0.00000047 Ry

     iteration #  6     ecut=    25.00 Ry     beta= 0.60
     Davidson diagonalization with overlap
     ethr =  5.93E-09,  avg # of iterations =  2.4

     total cpu time spent up to now is       28.4 secs

     total energy              =     -15.74173414 Ry
     estimated scf accuracy    <       0.00000036 Ry

     iteration #  7     ecut=    25.00 Ry     beta= 0.60
     Davidson diagonalization with overlap
     ethr =  4.50E-09,  avg # of iterations =  1.0

     total cpu time spent up to now is       29.3 secs

     total energy              =     -15.74173415 Ry
     estimated scf accuracy    <       0.00000002 Ry

     iteration #  8     ecut=    25.00 Ry     beta= 0.60
     Davidson diagonalization with overlap
     ethr =  2.66E-10,  avg # of iterations =  2.5

     total cpu time spent up to now is       30.5 secs

     total energy              =     -15.74173416 Ry
     estimated scf accuracy    <       0.00000002 Ry

     iteration #  9     ecut=    25.00 Ry     beta= 0.60
     Davidson diagonalization with overlap
     ethr =  2.12E-10,  avg # of iterations =  1.0

     total cpu time spent up to now is       31.4 secs

     total energy              =     -15.74173414 Ry
     estimated scf accuracy    <       0.00000003 Ry

     iteration # 10     ecut=    25.00 Ry     beta= 0.60
     Davidson diagonalization with overlap
     ethr =  2.12E-10,  avg # of iterations =  2.0

     total cpu time spent up to now is       32.7 secs

     End of self-consistent calculation

     Number of k-points >= 100: set verbosity='high' to print the bands.

     highest occupied level (ev):     5.9292

!    total energy              =     -15.74173415 Ry
     estimated scf accuracy    <          2.9E-10 Ry

     The total energy is the sum of the following terms:
     one-electron contribution =       4.59568889 Ry
     hartree contribution      =       1.11482989 Ry
     xc contribution           =      -4.78750450 Ry
     ewald contribution        =     -16.66474843 Ry

     convergence has been achieved in  10 iterations

     Forces acting on atoms (cartesian axes, Ry/au):

     atom    1 type  1   force =    -0.00000000   -0.00000000    0.00000000
     atom    2 type  1   force =    -0.00000000    0.00000000   -0.00000000

     Total force =     0.000000     Total SCF correction =     0.000000


     Computing stress (Cartesian axis) and pressure

          total   stress  (Ry/bohr**3)                   (kbar)     P=        0.54
   0.00000364  -0.00000000   0.00000000            0.54       -0.00        0.00
  -0.00000000   0.00000364  -0.00000000           -0.00        0.54       -0.00
   0.00000000  -0.00000000   0.00000364            0.00       -0.00        0.54


     number of scf cycles    =   3
     number of bfgs steps    =   2

     enthalpy old            =     -15.7415905082 Ry
     enthalpy new            =     -15.7417341458 Ry

     CASE: enthalpy_new < enthalpy_old

     new trust radius        =       0.0006655699 bohr
     new conv_thr            =       0.0000000010 Ry

     new unit-cell volume =    276.85118 a.u.^3 (    41.02511 Ang^3 )
     density =      2.27363 g/cm^3

CELL_PARAMETERS (alat= 10.26121290)
  -0.504127159   0.000000000   0.504127159
  -0.000000000   0.504127159   0.504127159
  -0.504127159   0.504127159   0.000000000

ATOMIC_POSITIONS (crystal)
Si            0.0000000000       -0.0000000000       -0.0000000000
Si            0.7500000000        0.7500000000        0.7500000000



     Writing output data file ../tmp/Si_exc1.save/
     NEW-OLD atomic charge density approx. for the potential
     extrapolated charge    8.00480, renormalised to    8.00000

     total cpu time spent up to now is       33.3 secs

     Self-consistent Calculation

     iteration #  1     ecut=    25.00 Ry     beta= 0.60
     Davidson diagonalization with overlap
     ethr =  1.00E-06,  avg # of iterations =  1.0

     Threshold (ethr) on eigenvalues was too large:
     Diagonalizing with lowered threshold

     Davidson diagonalization with overlap
     ethr =  1.53E-09,  avg # of iterations =  3.3

     total cpu time spent up to now is       35.7 secs

     total energy              =     -15.74173422 Ry
     estimated scf accuracy    <       0.00000012 Ry

     iteration #  2     ecut=    25.00 Ry     beta= 0.60
     Davidson diagonalization with overlap
     ethr =  1.54E-09,  avg # of iterations =  3.2

     total cpu time spent up to now is       37.3 secs

     total energy              =     -15.74173446 Ry
     estimated scf accuracy    <       0.00000007 Ry

     iteration #  3     ecut=    25.00 Ry     beta= 0.60
     Davidson diagonalization with overlap
     ethr =  8.65E-10,  avg # of iterations =  1.0

     total cpu time spent up to now is       38.2 secs

     total energy              =     -15.74173445 Ry
     estimated scf accuracy    <       0.00000003 Ry

     iteration #  4     ecut=    25.00 Ry     beta= 0.60
     Davidson diagonalization with overlap
     ethr =  3.20E-10,  avg # of iterations =  2.0

     total cpu time spent up to now is       39.5 secs

     total energy              =     -15.74173446 Ry
     estimated scf accuracy    <          3.7E-09 Ry

     iteration #  5     ecut=    25.00 Ry     beta= 0.60
     Davidson diagonalization with overlap
     ethr =  4.65E-11,  avg # of iterations =  1.1

     total cpu time spent up to now is       40.4 secs

     End of self-consistent calculation

     Number of k-points >= 100: set verbosity='high' to print the bands.

     highest occupied level (ev):     5.9231

!    total energy              =     -15.74173446 Ry
     estimated scf accuracy    <          8.6E-10 Ry

     The total energy is the sum of the following terms:
     one-electron contribution =       4.59121698 Ry
     hartree contribution      =       1.11533306 Ry
     xc contribution           =      -4.78686943 Ry
     ewald contribution        =     -16.66141507 Ry

     convergence has been achieved in   5 iterations

     Forces acting on atoms (cartesian axes, Ry/au):

     atom    1 type  1   force =     0.00000000    0.00000000   -0.00000000
     atom    2 type  1   force =     0.00000000    0.00000000    0.00000000

     Total force =     0.000000     Total SCF correction =     0.000000


     Computing stress (Cartesian axis) and pressure

          total   stress  (Ry/bohr**3)                   (kbar)     P=        0.00
   0.00000002   0.00000000   0.00000000            0.00        0.00        0.00
   0.00000000   0.00000002   0.00000000            0.00        0.00        0.00
   0.00000000   0.00000000   0.00000002            0.00        0.00        0.00


     bfgs converged in   4 scf cycles and   3 bfgs steps
     (criteria: energy <  1.0E-05 Ry, force <  1.0E-04Ry/Bohr, cell <  5.0E-01kbar)

     End of BFGS Geometry Optimization

     Final enthalpy =     -15.7417344569 Ry

     File ../tmp/Si_exc1.bfgs deleted, as requested
Begin final coordinates
     new unit-cell volume =    276.85118 a.u.^3 (    41.02511 Ang^3 )
     density =      2.27363 g/cm^3

CELL_PARAMETERS (alat= 10.26121290)
  -0.504127159   0.000000000   0.504127159
  -0.000000000   0.504127159   0.504127159
  -0.504127159   0.504127159   0.000000000

ATOMIC_POSITIONS (crystal)
Si            0.0000000000       -0.0000000000       -0.0000000000
Si            0.7500000000        0.7500000000        0.7500000000
End final coordinates



     Writing output data file ../tmp/Si_exc1.save/

     Final scf calculation at the relaxed structure.
     The G-vectors are recalculated for the final unit cell
     Results may differ from those at the preceding step.

     G-vector sticks info
     --------------------
     sticks:   dense  smooth     PW     G-vecs:    dense   smooth      PW
     Sum         367     367    121                 4645     4645     941



     bravais-lattice index     =            2
     lattice parameter (alat)  =      10.2612  a.u.
     unit-cell volume          =     276.8512 (a.u.)^3
     number of atoms/cell      =            2
     number of atomic types    =            1
     number of electrons       =         8.00
     number of Kohn-Sham states=            4
     kinetic-energy cutoff     =      25.0000  Ry
     charge density cutoff     =     100.0000  Ry
     convergence threshold     =      1.0E-09
     mixing beta               =       0.6000
     number of iterations used =            8  plain     mixing
     Exchange-correlation=  SLA  PW   PBE  PBE
                           (   1   4   3   4   0   0   0)

     celldm(1)=  10.261213  celldm(2)=   0.000000  celldm(3)=   0.000000
     celldm(4)=   0.000000  celldm(5)=   0.000000  celldm(6)=   0.000000

     crystal axes: (cart. coord. in units of alat)
               a(1) = (  -0.504127   0.000000   0.504127 )  
               a(2) = (  -0.000000   0.504127   0.504127 )  
               a(3) = (  -0.504127   0.504127   0.000000 )  

     reciprocal axes: (cart. coord. in units 2 pi/alat)
               b(1) = ( -0.991813 -0.991813  0.991813 )  
               b(2) = (  0.991813  0.991813  0.991813 )  
               b(3) = ( -0.991813  0.991813 -0.991813 )  


     PseudoPot. # 1 for Si read from file:
     ../pseudo/Si.pbe-rrkj.UPF
     MD5 check sum: cf7ab5690cd9a85b22c4813f7e365554
     Pseudo is Norm-conserving, Zval =  4.0
     Generated by new atomic code, or converted to UPF format
     Using radial grid of  883 points,  3 beta functions with: 
                l(1) =   0
                l(2) =   0
                l(3) =   1

     atomic species   valence    mass     pseudopotential
        Si             4.00    28.08600     Si( 1.00)

     48 Sym. Ops., with inversion, found (24 have fractional translation)



   Cartesian axes

     site n.     atom                  positions (alat units)
         1           Si  tau(   1) = (   0.0000000  -0.0000000  -0.0000000  )
         2           Si  tau(   2) = (  -0.7561907   0.7561907   0.7561907  )

     number of k points=   110

     Number of k-points >= 100: set verbosity='high' to print them.

     Dense  grid:     4645 G-vectors     FFT dimensions: (  24,  24,  24)

     Estimated max dynamical RAM per process >       7.38 MB

     Initial potential from superposition of free atoms

     starting charge    7.99889, renormalised to    8.00000
     Starting wfcs are    8 randomized atomic wfcs

     total cpu time spent up to now is       41.8 secs

     Self-consistent Calculation

     iteration #  1     ecut=    25.00 Ry     beta= 0.60
     Davidson diagonalization with overlap
     ethr =  1.00E-06,  avg # of iterations =  9.9

     total cpu time spent up to now is       45.7 secs

     total energy              =     -15.74020748 Ry
     estimated scf accuracy    <       0.05675723 Ry

     iteration #  2     ecut=    25.00 Ry     beta= 0.60
     Davidson diagonalization with overlap
     ethr =  7.09E-04,  avg # of iterations =  1.0

     total cpu time spent up to now is       46.5 secs

     total energy              =     -15.74121228 Ry
     estimated scf accuracy    <       0.00578284 Ry

     iteration #  3     ecut=    25.00 Ry     beta= 0.60
     Davidson diagonalization with overlap
     ethr =  7.23E-05,  avg # of iterations =  1.4

     total cpu time spent up to now is       47.4 secs

     total energy              =     -15.74166049 Ry
     estimated scf accuracy    <       0.00008094 Ry

     iteration #  4     ecut=    25.00 Ry     beta= 0.60
     Davidson diagonalization with overlap
     ethr =  1.01E-06,  avg # of iterations =  4.4

     total cpu time spent up to now is       49.2 secs

     total energy              =     -15.74174529 Ry
     estimated scf accuracy    <       0.00000255 Ry

     iteration #  5     ecut=    25.00 Ry     beta= 0.60
     Davidson diagonalization with overlap
     ethr =  3.19E-08,  avg # of iterations =  4.5

     total cpu time spent up to now is       51.0 secs

     total energy              =     -15.74174763 Ry
     estimated scf accuracy    <       0.00000005 Ry

     iteration #  6     ecut=    25.00 Ry     beta= 0.60
     Davidson diagonalization with overlap
     ethr =  5.69E-10,  avg # of iterations =  4.4

     total cpu time spent up to now is       53.4 secs

     total energy              =     -15.74174769 Ry
     estimated scf accuracy    <       0.00000001 Ry

     iteration #  7     ecut=    25.00 Ry     beta= 0.60
     Davidson diagonalization with overlap
     ethr =  1.56E-10,  avg # of iterations =  2.1

     total cpu time spent up to now is       54.6 secs

     End of self-consistent calculation

     Number of k-points >= 100: set verbosity='high' to print the bands.

     highest occupied level (ev):     5.9230

!    total energy              =     -15.74174769 Ry
     estimated scf accuracy    <          4.4E-11 Ry

     The total energy is the sum of the following terms:
     one-electron contribution =       4.59119265 Ry
     hartree contribution      =       1.11534978 Ry
     xc contribution           =      -4.78687506 Ry
     ewald contribution        =     -16.66141506 Ry

     convergence has been achieved in   7 iterations

     Forces acting on atoms (cartesian axes, Ry/au):

     atom    1 type  1   force =    -0.00000000   -0.00000000    0.00000000
     atom    2 type  1   force =     0.00000000    0.00000000   -0.00000000

     Total force =     0.000000     Total SCF correction =     0.000000


     Computing stress (Cartesian axis) and pressure

          total   stress  (Ry/bohr**3)                   (kbar)     P=        0.04
   0.00000031  -0.00000000  -0.00000000            0.04       -0.00       -0.00
  -0.00000000   0.00000031   0.00000000           -0.00        0.04        0.00
  -0.00000000   0.00000000   0.00000031           -0.00        0.00        0.04


     Writing output data file ../tmp/Si_exc1.save/

     init_run     :     19.42s CPU      2.03s WALL (       2 calls)
     electrons    :    559.70s CPU     50.40s WALL (       5 calls)
     update_pot   :      0.44s CPU      0.45s WALL (       3 calls)
     forces       :      0.53s CPU      0.54s WALL (       5 calls)
     stress       :      1.70s CPU      1.38s WALL (       5 calls)

     Called by init_run:
     wfcinit      :     19.00s CPU      1.61s WALL (       2 calls)
     potinit      :      0.11s CPU      0.11s WALL (       2 calls)
     hinit0       :      0.26s CPU      0.26s WALL (       2 calls)

     Called by electrons:
     c_bands      :    537.73s CPU     45.57s WALL (      37 calls)
     sum_band     :     17.81s CPU      4.26s WALL (      37 calls)
     v_of_rho     :      3.61s CPU      0.45s WALL (      40 calls)
     mix_rho      :      0.49s CPU      0.07s WALL (      37 calls)

     Called by c_bands:
     init_us_2    :     14.35s CPU      1.77s WALL (    9460 calls)
     cegterg      :    517.00s CPU     43.77s WALL (    4070 calls)

     Called by *egterg:
     cdiaghg      :     49.58s CPU      4.48s WALL (   13592 calls)
     h_psi        :    459.00s CPU     38.49s WALL (   14362 calls)
     g_psi        :      3.24s CPU      0.25s WALL (   10072 calls)

     Called by h_psi:
     h_psi:calbec :      8.80s CPU      0.69s WALL (   14362 calls)
     vloc_psi     :    439.45s CPU     36.98s WALL (   14362 calls)
     add_vuspsi   :      6.83s CPU      0.48s WALL (   14362 calls)

     General routines
     calbec       :      7.72s CPU      0.67s WALL (   17112 calls)
     fft          :      1.21s CPU      0.17s WALL (     440 calls)
     ffts         :      0.01s CPU      0.01s WALL (      37 calls)
     fftw         :    405.50s CPU     36.10s WALL (  118502 calls)


     PWSCF        :   9m43.69s CPU     55.03s WALL


   This run was terminated on:  17:46: 0  20Mar2023            

=------------------------------------------------------------------------------=
   JOB DONE.
=------------------------------------------------------------------------------=
