16   
1    

1    
 -0.0141421356237310   0.0000000000000000   0.0141421356237310
   0.0038122200    0.0000669187   -0.0038122200
  -0.0002606000    0.0000120287    0.0002606000
   0.0002333800    0.0001305787    0.0001281200
  -0.0001320700   -0.0001298713   -0.0002586200
  -0.0001281200    0.0001305787   -0.0002333800
   0.0002586200   -0.0001298713    0.0001320700
   0.0000004300   -0.0000121113   -0.0000004300
  -0.0000234300   -0.0000016813    0.0000234300
   0.0000047900    0.0000775487   -0.0000047900
  -0.0000079200   -0.0000907312    0.0000079200
   0.0000893400    0.0000062987   -0.0000758000
  -0.0003574300   -0.0000094813    0.0003729100
   0.0000758000    0.0000062987   -0.0000893400
  -0.0003729100   -0.0000094813    0.0003574300
  -0.0016125700   -0.0012546112    0.0016125700
  -0.0015795300    0.0012075887    0.0015795300
