q-position: [    0.5000000,    0.0000000,    0.0000000 ]
point_group: m-3m
transformation_matrix:
- [  0.0000000,  0.5000000,  0.5000000 ]
- [  0.5000000, -0.0000000,  0.5000000 ]
- [  0.5000000,  0.5000000,  0.0000000 ]
rotations:
- matrix:
  - [  1,  0,  0 ]
  - [  0,  1,  0 ]
  - [  0,  0,  1 ]
  symbol: E
- matrix:
  - [  0,  1,  0 ]
  - [  1,  0,  0 ]
  - [  0,  0, -1 ]
  symbol: C2
- matrix:
  - [  0,  0,  1 ]
  - [  0, -1,  0 ]
  - [  1,  0,  0 ]
  symbol: C2
- matrix:
  - [  0,  0, -1 ]
  - [ -1,  0,  0 ]
  - [  0,  1,  0 ]
  symbol: C3
- matrix:
  - [  0, -1,  0 ]
  - [  0,  0,  1 ]
  - [ -1,  0,  0 ]
  symbol: C3
- matrix:
  - [ -1,  0,  0 ]
  - [  0,  0, -1 ]
  - [  0, -1,  0 ]
  symbol: C2
- matrix:
  - [ -1,  0,  0 ]
  - [  0, -1,  0 ]
  - [  0,  0, -1 ]
  symbol: i
- matrix:
  - [  0, -1,  0 ]
  - [ -1,  0,  0 ]
  - [  0,  0,  1 ]
  symbol: sgd
- matrix:
  - [  0,  0, -1 ]
  - [  0,  1,  0 ]
  - [ -1,  0,  0 ]
  symbol: sgd
- matrix:
  - [  0,  0,  1 ]
  - [  1,  0,  0 ]
  - [  0, -1,  0 ]
  symbol: S6
- matrix:
  - [  0,  1,  0 ]
  - [  0,  0, -1 ]
  - [  1,  0,  0 ]
  symbol: S6
- matrix:
  - [  1,  0,  0 ]
  - [  0,  0,  1 ]
  - [  0,  1,  0 ]
  symbol: sgd
normal_modes:
- band_indices: [ 1, 2 ]
  frequency: 3.3963375885   
  characters: [ [  2,   0.0 ], [  0, 270.0 ], [  0,   0.4 ], [  1, 180.0 ], [  1, 180.0 ], [  0, 177.8 ], [  2, 180.0 ], [  0,  90.0 ], [  0, 180.0 ], [  1,   0.0 ], [  1, 360.0 ], [  0,   0.6 ] ]
- band_indices: [ 3 ]
  frequency: 11.0790471339  
  characters: [ [  1,   0.0 ], [  1, 360.0 ], [  1,   0.0 ], [  1,   0.0 ], [  1,   0.0 ], [  1, 360.0 ], [  1, 360.0 ], [  1, 360.0 ], [  1,   0.0 ], [  1, 360.0 ], [  1,   0.0 ], [  1,   0.0 ] ]
- band_indices: [ 4 ]
  frequency: 11.7380627558  
  characters: [ [  1,   0.0 ], [  1, 180.0 ], [  1, 180.0 ], [  1, 360.0 ], [  1,   0.0 ], [  1, 180.0 ], [  1, 180.0 ], [  1, 360.0 ], [  1,   0.0 ], [  1, 180.0 ], [  1, 180.0 ], [  1,   0.0 ] ]
- band_indices: [ 5, 6 ]
  frequency: 14.2204338458  
  characters: [ [  2, 360.0 ], [  0, 178.4 ], [  0, 179.9 ], [  1, 180.0 ], [  1, 180.0 ], [  0, 359.5 ], [  2, 360.0 ], [  0, 179.6 ], [  0, 180.0 ], [  1, 180.0 ], [  1, 180.0 ], [  0, 359.5 ] ]

irreps:
- # 1
  - # 1 E
    - [  1.0000000,  0.0000000,   -0.0000000, -0.0000000 ] # (    0  192)
    - [ -0.0000000,  0.0000000,    1.0000000,  0.0000000 ] # (  154    0)
  - # 2 C2
    - [ -0.6957647,  0.0000000,    0.7177321, -0.0277847 ] # (  180  358)
    - [  0.7177321,  0.0277847,    0.6957647, -0.0000000 ] # (    2  360)
  - # 3 C2
    - [ -0.2741207,  0.0000000,   -0.9612939,  0.0277847 ] # (  180  178)
    - [ -0.9612939, -0.0277847,    0.2741207,  0.0000000 ] # (  182    0)
  - # 4 C3
    - [ -0.5000000, -0.0067673,   -0.8655796,  0.0269479 ] # (  181  178)
    - [  0.8655796,  0.0269479,   -0.5000000,  0.0067673 ] # (    2  179)
  - # 5 C3
    - [ -0.5000000,  0.0067673,    0.8655796, -0.0269479 ] # (  179  358)
    - [ -0.8655796, -0.0269479,   -0.5000000, -0.0067673 ] # (  182  181)
  - # 6 C2
    - [  0.9698854,  0.0000000,    0.2435617,  0.0000000 ] # (    0    0)
    - [  0.2435617, -0.0000000,   -0.9698854, -0.0000000 ] # (  360  180)
  - # 7 i
    - [ -1.0000000,  0.0000000,    0.0000000,  0.0000000 ] # (  180   10)
    - [  0.0000000, -0.0000000,   -1.0000000,  0.0000000 ] # (  345  180)
  - # 8 sgd
    - [  0.6957647,  0.0000000,   -0.7177321,  0.0277847 ] # (    0  178)
    - [ -0.7177321, -0.0277847,   -0.6957647, -0.0000000 ] # (  182  180)
  - # 9 sgd
    - [  0.2741207,  0.0000000,    0.9612939, -0.0277847 ] # (    0  358)
    - [  0.9612939,  0.0277847,   -0.2741207, -0.0000000 ] # (    2  180)
  - # 10 S6
    - [  0.5000000,  0.0067673,    0.8655796, -0.0269479 ] # (    1  358)
    - [ -0.8655796, -0.0269479,    0.5000000, -0.0067673 ] # (  182  359)
  - # 11 S6
    - [  0.5000000, -0.0067673,   -0.8655796,  0.0269479 ] # (  359  178)
    - [  0.8655796,  0.0269479,    0.5000000,  0.0067673 ] # (    2    1)
  - # 12 sgd
    - [ -0.9698854, -0.0000000,   -0.2435617, -0.0000000 ] # (  180  180)
    - [ -0.2435617, -0.0000000,    0.9698854,  0.0000000 ] # (  180    0)
- # 2
  - [ [  1.0000000,  0.0000000 ] ] # (  0) 1 E
  - [ [  1.0000000, -0.0000000 ] ] # (360) 2 C2
  - [ [  1.0000000,  0.0000000 ] ] # (  0) 3 C2
  - [ [  1.0000000,  0.0000000 ] ] # (  0) 4 C3
  - [ [  1.0000000,  0.0000000 ] ] # (  0) 5 C3
  - [ [  1.0000000, -0.0000000 ] ] # (360) 6 C2
  - [ [  1.0000000, -0.0000000 ] ] # (360) 7 i
  - [ [  1.0000000, -0.0000000 ] ] # (360) 8 sgd
  - [ [  1.0000000,  0.0000000 ] ] # (  0) 9 sgd
  - [ [  1.0000000, -0.0000000 ] ] # (360) 10 S6
  - [ [  1.0000000,  0.0000000 ] ] # (  0) 11 S6
  - [ [  1.0000000,  0.0000000 ] ] # (  0) 12 sgd
- # 3
  - [ [  1.0000000,  0.0000000 ] ] # (  0) 1 E
  - [ [ -1.0000000,  0.0000000 ] ] # (180) 2 C2
  - [ [ -1.0000000,  0.0000000 ] ] # (180) 3 C2
  - [ [  1.0000000, -0.0000000 ] ] # (360) 4 C3
  - [ [  1.0000000,  0.0000000 ] ] # (  0) 5 C3
  - [ [ -1.0000000,  0.0000000 ] ] # (180) 6 C2
  - [ [ -1.0000000,  0.0000000 ] ] # (180) 7 i
  - [ [  1.0000000, -0.0000000 ] ] # (360) 8 sgd
  - [ [  1.0000000,  0.0000000 ] ] # (  0) 9 sgd
  - [ [ -1.0000000, -0.0000000 ] ] # (180) 10 S6
  - [ [ -1.0000000,  0.0000000 ] ] # (180) 11 S6
  - [ [  1.0000000,  0.0000000 ] ] # (  0) 12 sgd
- # 4
  - # 1 E
    - [  1.0000000,  0.0000000,    0.0000000,  0.0000000 ] # (    0   11)
    - [  0.0000000, -0.0000000,    1.0000000, -0.0000000 ] # (  339  360)
  - # 2 C2
    - [  0.6828505, -0.0000000,    0.7285048,  0.0547360 ] # (  360    4)
    - [  0.7285048, -0.0547360,   -0.6828505,  0.0000000 ] # (  356  180)
  - # 3 C2
    - [  0.2911351, -0.0000000,   -0.9551148, -0.0547360 ] # (  360  183)
    - [ -0.9551148,  0.0547360,   -0.2911351,  0.0000000 ] # (  177  180)
  - # 4 C3
    - [ -0.5000000,  0.0124037,    0.8642939,  0.0533120 ] # (  179    4)
    - [ -0.8642939,  0.0533120,   -0.5000000, -0.0124037 ] # (  176  181)
  - # 5 C3
    - [ -0.5000000, -0.0124037,   -0.8642939, -0.0533120 ] # (  181  184)
    - [  0.8642939, -0.0533120,   -0.5000000,  0.0124037 ] # (  356  179)
  - # 6 C2
    - [ -0.9739856,  0.0000000,    0.2266101,  0.0000000 ] # (  180    0)
    - [  0.2266101,  0.0000000,    0.9739856, -0.0000000 ] # (    0  360)
  - # 7 i
    - [  1.0000000, -0.0000000,    0.0000000,  0.0000000 ] # (  360   17)
    - [  0.0000000, -0.0000000,    1.0000000, -0.0000000 ] # (  282  360)
  - # 8 sgd
    - [  0.6828505,  0.0000000,    0.7285048,  0.0547360 ] # (    0    4)
    - [  0.7285048, -0.0547360,   -0.6828505,  0.0000000 ] # (  356  180)
  - # 9 sgd
    - [  0.2911351,  0.0000000,   -0.9551148, -0.0547360 ] # (    0  183)
    - [ -0.9551148,  0.0547360,   -0.2911351, -0.0000000 ] # (  177  180)
  - # 10 S6
    - [ -0.5000000,  0.0124037,    0.8642939,  0.0533120 ] # (  179    4)
    - [ -0.8642939,  0.0533120,   -0.5000000, -0.0124037 ] # (  176  181)
  - # 11 S6
    - [ -0.5000000, -0.0124037,   -0.8642939, -0.0533120 ] # (  181  184)
    - [  0.8642939, -0.0533120,   -0.5000000,  0.0124037 ] # (  356  179)
  - # 12 sgd
    - [ -0.9739856, -0.0000000,    0.2266101,  0.0000000 ] # (  180    0)
    - [  0.2266101,  0.0000000,    0.9739856,  0.0000000 ] # (    0    0)
