phonopy:
  version: 2.13.1
  calculator: qe
  frequency_unit_conversion_factor: 15.633302
  symmetry_tolerance: 1.00000e-05
  configuration:
    cell_filename: "Si_relaxed.in"
    create_displacements: ".true."
    dim: "2 2 2"
    calculator: "qe"

physical_unit:
  atomic_mass: "AMU"
  length: "au"
  force_constants: "Ry/au^2"

space_group:
  type: "Fd-3m"
  number: 227
  Hall_symbol: "F 4d 2 3 -1d"

supercell_matrix:
- [   2,   0,   0 ]
- [   0,   2,   0 ]
- [   0,   0,   2 ]

primitive_cell:
  lattice:
  - [    -5.172953180504616,     0.000000000000000,     5.172953180504616 ] # a
  - [     0.000000000000000,     5.172953180504616,     5.172953180504616 ] # b
  - [    -5.172953180504616,     5.172953180504616,     0.000000000000000 ] # c
  points:
  - symbol: Si # 1
    coordinates: [  0.000000000000000,  0.000000000000000,  0.000000000000000 ]
    mass: 28.085500
  - symbol: Si # 2
    coordinates: [  0.750000000000000,  0.750000000000000,  0.750000000000000 ]
    mass: 28.085500
  reciprocal_lattice: # without 2pi
  - [    -0.096656587166564,    -0.096656587166564,     0.096656587166564 ] # a*
  - [     0.096656587166564,     0.096656587166564,     0.096656587166564 ] # b*
  - [    -0.096656587166564,     0.096656587166564,    -0.096656587166564 ] # c*

unit_cell:
  lattice:
  - [    -5.172953180504616,     0.000000000000000,     5.172953180504616 ] # a
  - [    -0.000000000000000,     5.172953180504616,     5.172953180504616 ] # b
  - [    -5.172953180504616,     5.172953180504616,     0.000000000000000 ] # c
  points:
  - symbol: Si # 1
    coordinates: [  0.000000000000000, -0.000000000000000, -0.000000000000000 ]
    mass: 28.085500
    reduced_to: 1
  - symbol: Si # 2
    coordinates: [  0.750000000000000,  0.750000000000000,  0.750000000000000 ]
    mass: 28.085500
    reduced_to: 2

supercell:
  lattice:
  - [   -10.345906361009233,     0.000000000000000,    10.345906361009233 ] # a
  - [     0.000000000000000,    10.345906361009233,    10.345906361009233 ] # b
  - [   -10.345906361009233,    10.345906361009233,     0.000000000000000 ] # c
  points:
  - symbol: Si # 1
    coordinates: [  0.000000000000000,  0.000000000000000,  0.000000000000000 ]
    mass: 28.085500
    reduced_to: 1
  - symbol: Si # 2
    coordinates: [  0.500000000000000,  0.000000000000000,  0.000000000000000 ]
    mass: 28.085500
    reduced_to: 1
  - symbol: Si # 3
    coordinates: [  0.000000000000000,  0.500000000000000,  0.000000000000000 ]
    mass: 28.085500
    reduced_to: 1
  - symbol: Si # 4
    coordinates: [  0.500000000000000,  0.500000000000000,  0.000000000000000 ]
    mass: 28.085500
    reduced_to: 1
  - symbol: Si # 5
    coordinates: [  0.000000000000000,  0.000000000000000,  0.500000000000000 ]
    mass: 28.085500
    reduced_to: 1
  - symbol: Si # 6
    coordinates: [  0.500000000000000,  0.000000000000000,  0.500000000000000 ]
    mass: 28.085500
    reduced_to: 1
  - symbol: Si # 7
    coordinates: [  0.000000000000000,  0.500000000000000,  0.500000000000000 ]
    mass: 28.085500
    reduced_to: 1
  - symbol: Si # 8
    coordinates: [  0.500000000000000,  0.500000000000000,  0.500000000000000 ]
    mass: 28.085500
    reduced_to: 1
  - symbol: Si # 9
    coordinates: [  0.375000000000000,  0.375000000000000,  0.375000000000000 ]
    mass: 28.085500
    reduced_to: 9
  - symbol: Si # 10
    coordinates: [  0.875000000000000,  0.375000000000000,  0.375000000000000 ]
    mass: 28.085500
    reduced_to: 9
  - symbol: Si # 11
    coordinates: [  0.375000000000000,  0.875000000000000,  0.375000000000000 ]
    mass: 28.085500
    reduced_to: 9
  - symbol: Si # 12
    coordinates: [  0.875000000000000,  0.875000000000000,  0.375000000000000 ]
    mass: 28.085500
    reduced_to: 9
  - symbol: Si # 13
    coordinates: [  0.375000000000000,  0.375000000000000,  0.875000000000000 ]
    mass: 28.085500
    reduced_to: 9
  - symbol: Si # 14
    coordinates: [  0.875000000000000,  0.375000000000000,  0.875000000000000 ]
    mass: 28.085500
    reduced_to: 9
  - symbol: Si # 15
    coordinates: [  0.375000000000000,  0.875000000000000,  0.875000000000000 ]
    mass: 28.085500
    reduced_to: 9
  - symbol: Si # 16
    coordinates: [  0.875000000000000,  0.875000000000000,  0.875000000000000 ]
    mass: 28.085500
    reduced_to: 9

displacements:
- atom:    1
  displacement:
    [  -0.0141421356237310,  0.0000000000000000,  0.0141421356237310 ]
