
     Program PWSCF v.6.8 starts on 16Mar2022 at  6:32: 0 

     This program is part of the open-source Quantum ESPRESSO suite
     for quantum simulation of materials; please cite
         "P. Giannozzi et al., J. Phys.:Condens. Matter 21 395502 (2009);
         "P. Giannozzi et al., J. Phys.:Condens. Matter 29 465901 (2017);
         "P. Giannozzi et al., J. Chem. Phys. 152 154105 (2020);
          URL http://www.quantum-espresso.org", 
     in publications or presentations arising from this work. More details at
     http://www.quantum-espresso.org/quote

     Parallel version (MPI & OpenMP), running on      24 processor cores
     Number of MPI processes:                24
     Threads/MPI process:                     1

     MPI processes distributed on     1 nodes
     R & G space division:  proc/nbgrp/npool/nimage =      24
     74976 MiB available memory on the printing compute node when the environment starts
 
     Waiting for input...
     Reading input from standard input

     Current dimensions of program PWSCF are:
     Max number of different atomic species (ntypx) = 10
     Max number of k-points (npk) =  40000
     Max angular momentum in pseudopotentials (lmaxx) =  4
     Message from routine setup:
     using ibrav=0 with symmetry is DISCOURAGED, use correct ibrav instead

     Subspace diagonalization in iterative solution of the eigenvalue problem:
     one sub-group per band group will be used
     scalapack distributed-memory algorithm (size of sub-group:  4*  4 procs)

 
     Parallelization info
     --------------------
     sticks:   dense  smooth     PW     G-vecs:    dense   smooth      PW
     Min          49      49     14                 1111     1111     181
     Max          50      50     16                 1116     1116     185
     Sum        1177    1177    361                26717    26717    4381
 
     Using Slab Decomposition
 


     bravais-lattice index     =            0
     lattice parameter (alat)  =      14.6313  a.u.
     unit-cell volume          =    2214.8057 (a.u.)^3
     number of atoms/cell      =           16
     number of atomic types    =            1
     number of electrons       =        64.00
     number of Kohn-Sham states=           32
     kinetic-energy cutoff     =      20.0000  Ry
     charge density cutoff     =      80.0000  Ry
     scf convergence threshold =      1.0E-07
     mixing beta               =       0.7000
     number of iterations used =            8  plain     mixing
     Exchange-correlation=  SLA  PW   PBE  PBE
                           (   1   4   3   4   0   0   0)

     celldm(1)=  14.631321  celldm(2)=   0.000000  celldm(3)=   0.000000
     celldm(4)=   0.000000  celldm(5)=   0.000000  celldm(6)=   0.000000

     crystal axes: (cart. coord. in units of alat)
               a(1) = (  -0.707107   0.000000   0.707107 )  
               a(2) = (   0.000000   0.707107   0.707107 )  
               a(3) = (  -0.707107   0.707107   0.000000 )  

     reciprocal axes: (cart. coord. in units 2 pi/alat)
               b(1) = ( -0.707107 -0.707107  0.707107 )  
               b(2) = (  0.707107  0.707107  0.707107 )  
               b(3) = ( -0.707107  0.707107 -0.707107 )  


     PseudoPot. # 1 for Si read from file:
     /home/aritzleo/TOPICS/PSEUDO/Si.pbe-rrkj.UPF
     MD5 check sum: cf7ab5690cd9a85b22c4813f7e365554
     Pseudo is Norm-conserving, Zval =  4.0
     Generated by new atomic code, or converted to UPF format
     Using radial grid of  883 points,  3 beta functions with: 
                l(1) =   0
                l(2) =   0
                l(3) =   1

     atomic species   valence    mass     pseudopotential
        Si             4.00    28.08550     Si( 1.00)

      2 Sym. Ops. (no inversion) found


                                    s                        frac. trans.

      isym =  1     identity                                     

 cryst.   s( 1) = (     1          0          0      )
                  (     0          1          0      )
                  (     0          0          1      )

 cart.    s( 1) = (  1.0000000  0.0000000 -0.0000000 )
                  (  0.0000000  1.0000000  0.0000000 )
                  ( -0.0000000 -0.0000000  1.0000000 )


      isym =  2     inv. 180 deg rotation - cart. axis [1,0,1]   

 cryst.   s( 2) = (     1          0          0      )
                  (     0          0          1      )
                  (     0          1          0      )

 cart.    s( 2) = (  0.0000000  0.0000000 -1.0000000 )
                  ( -0.0000000  1.0000000 -0.0000000 )
                  ( -1.0000000 -0.0000000  0.0000000 )


   Cartesian axes

     site n.     atom                  positions (alat units)
         1           Si  tau(   1) = (  -0.0009666   0.0000000   0.0009666  )
         2           Si  tau(   2) = (  -0.3535534   0.0000000   0.3535534  )
         3           Si  tau(   3) = (   0.0000000   0.3535534   0.3535534  )
         4           Si  tau(   4) = (  -0.3535534   0.3535534   0.7071068  )
         5           Si  tau(   5) = (  -0.3535534   0.3535534   0.0000000  )
         6           Si  tau(   6) = (  -0.7071068   0.3535534   0.3535534  )
         7           Si  tau(   7) = (  -0.3535534   0.7071068   0.3535534  )
         8           Si  tau(   8) = (  -0.7071068   0.7071068   0.7071068  )
         9           Si  tau(   9) = (  -0.5303301   0.5303301   0.5303301  )
        10           Si  tau(  10) = (  -0.8838835   0.5303301   0.8838835  )
        11           Si  tau(  11) = (  -0.5303301   0.8838835   0.8838835  )
        12           Si  tau(  12) = (  -0.8838835   0.8838835   1.2374369  )
        13           Si  tau(  13) = (  -0.8838835   0.8838835   0.5303301  )
        14           Si  tau(  14) = (  -1.2374369   0.8838835   0.8838835  )
        15           Si  tau(  15) = (  -0.8838835   1.2374369   0.8838835  )
        16           Si  tau(  16) = (  -1.2374369   1.2374369   1.2374369  )

   Crystallographic axes

     site n.     atom                  positions (cryst. coord.)
         1           Si  tau(   1) = (  0.0013669  0.0000000 -0.0000000  )
         2           Si  tau(   2) = (  0.5000000 -0.0000000  0.0000000  )
         3           Si  tau(   3) = ( -0.0000000  0.5000000  0.0000000  )
         4           Si  tau(   4) = (  0.5000000  0.5000000  0.0000000  )
         5           Si  tau(   5) = ( -0.0000000  0.0000000  0.5000000  )
         6           Si  tau(   6) = (  0.5000000  0.0000000  0.5000000  )
         7           Si  tau(   7) = ( -0.0000000  0.5000000  0.5000000  )
         8           Si  tau(   8) = (  0.5000000  0.5000000  0.5000000  )
         9           Si  tau(   9) = (  0.3750000  0.3750000  0.3750000  )
        10           Si  tau(  10) = (  0.8750000  0.3750000  0.3750000  )
        11           Si  tau(  11) = (  0.3750000  0.8750000  0.3750000  )
        12           Si  tau(  12) = (  0.8750000  0.8750000  0.3750000  )
        13           Si  tau(  13) = (  0.3750000  0.3750000  0.8750000  )
        14           Si  tau(  14) = (  0.8750000  0.3750000  0.8750000  )
        15           Si  tau(  15) = (  0.3750000  0.8750000  0.8750000  )
        16           Si  tau(  16) = (  0.8750000  0.8750000  0.8750000  )

     number of k points=   141
                       cart. coord. in units 2pi/alat
        k(    1) = (  -0.0707107   0.0707107   0.0707107), wk =   0.0080000
        k(    2) = (  -0.2121320   0.2121320  -0.0707107), wk =   0.0160000
        k(    3) = (   0.3535534  -0.3535534   0.4949747), wk =   0.0160000
        k(    4) = (   0.2121320  -0.2121320   0.3535534), wk =   0.0160000
        k(    5) = (   0.0707107  -0.0707107   0.2121320), wk =   0.0160000
        k(    6) = (  -0.0707107   0.3535534   0.0707107), wk =   0.0080000
        k(    7) = (   0.4949747  -0.2121320   0.6363961), wk =   0.0160000
        k(    8) = (   0.3535534  -0.0707107   0.4949747), wk =   0.0160000
        k(    9) = (   0.2121320   0.0707107   0.3535534), wk =   0.0160000
        k(   10) = (  -0.0707107  -0.7778175   0.0707107), wk =   0.0080000
        k(   11) = (  -0.2121320  -0.6363961  -0.0707107), wk =   0.0160000
        k(   12) = (  -0.3535534  -0.4949747  -0.2121320), wk =   0.0160000
        k(   13) = (  -0.0707107  -0.4949747   0.0707107), wk =   0.0080000
        k(   14) = (  -0.2121320   0.2121320   0.2121320), wk =   0.0080000
        k(   15) = (   0.3535534  -0.3535534   0.7778175), wk =   0.0160000
        k(   16) = (   0.2121320  -0.2121320   0.6363961), wk =   0.0160000
        k(   17) = (  -0.2121320  -0.9192388   0.2121320), wk =   0.0080000
        k(   18) = (  -0.3535534  -0.7778175   0.0707107), wk =   0.0160000
        k(   19) = (   0.3535534  -0.3535534  -0.3535534), wk =   0.0040000
        k(   20) = (   0.0707107   0.0707107  -0.0707107), wk =   0.0080000
        k(   21) = (  -0.0707107  -0.0707107  -0.0707107), wk =   0.0160000
        k(   22) = (   0.2121320   0.2121320   0.0707107), wk =   0.0160000
        k(   23) = (  -0.2121320  -0.2121320   0.0707107), wk =   0.0160000
        k(   24) = (  -0.2121320   0.2121320   0.0707107), wk =   0.0160000
        k(   25) = (   0.2121320  -0.0707107   0.2121320), wk =   0.0160000
        k(   26) = (   0.2121320   0.0707107  -0.2121320), wk =   0.0080000
        k(   27) = (  -0.2121320   0.0707107   0.2121320), wk =   0.0080000
        k(   28) = (  -0.3535534  -0.3535534  -0.4949747), wk =   0.0160000
        k(   29) = (   0.3535534   0.3535534  -0.4949747), wk =   0.0160000
        k(   30) = (   0.3535534  -0.3535534  -0.4949747), wk =   0.0160000
        k(   31) = (  -0.3535534   0.4949747  -0.3535534), wk =   0.0160000
        k(   32) = (  -0.3535534  -0.4949747   0.3535534), wk =   0.0080000
        k(   33) = (   0.3535534  -0.4949747  -0.3535534), wk =   0.0080000
        k(   34) = (  -0.2121320  -0.2121320  -0.3535534), wk =   0.0160000
        k(   35) = (   0.2121320   0.2121320  -0.3535534), wk =   0.0160000
        k(   36) = (   0.2121320  -0.2121320  -0.3535534), wk =   0.0160000
        k(   37) = (  -0.2121320   0.3535534  -0.2121320), wk =   0.0160000
        k(   38) = (  -0.2121320  -0.3535534   0.2121320), wk =   0.0080000
        k(   39) = (   0.2121320  -0.3535534  -0.2121320), wk =   0.0080000
        k(   40) = (  -0.0707107  -0.0707107  -0.2121320), wk =   0.0160000
        k(   41) = (   0.0707107   0.0707107  -0.2121320), wk =   0.0160000
        k(   42) = (   0.0707107  -0.0707107  -0.2121320), wk =   0.0160000
        k(   43) = (  -0.0707107   0.2121320  -0.0707107), wk =   0.0160000
        k(   44) = (  -0.0707107  -0.2121320   0.0707107), wk =   0.0080000
        k(   45) = (   0.0707107  -0.2121320  -0.0707107), wk =   0.0080000
        k(   46) = (   0.0707107   0.3535534  -0.0707107), wk =   0.0080000
        k(   47) = (  -0.0707107  -0.3535534  -0.0707107), wk =   0.0160000
        k(   48) = (   0.3535534  -0.0707107  -0.0707107), wk =   0.0160000
        k(   49) = (  -0.3535534   0.0707107  -0.0707107), wk =   0.0160000
        k(   50) = (   0.3535534   0.0707107   0.0707107), wk =   0.0160000
        k(   51) = (  -0.3535534  -0.0707107   0.0707107), wk =   0.0160000
        k(   52) = (  -0.4949747  -0.2121320  -0.6363961), wk =   0.0160000
        k(   53) = (   0.4949747   0.2121320  -0.6363961), wk =   0.0160000
        k(   54) = (  -0.2121320   0.4949747  -0.6363961), wk =   0.0160000
        k(   55) = (   0.2121320  -0.4949747  -0.6363961), wk =   0.0160000
        k(   56) = (  -0.2121320  -0.4949747   0.6363961), wk =   0.0160000
        k(   57) = (   0.2121320   0.4949747   0.6363961), wk =   0.0160000
        k(   58) = (   0.6363961  -0.2121320  -0.4949747), wk =   0.0160000
        k(   59) = (  -0.4949747   0.6363961  -0.2121320), wk =   0.0160000
        k(   60) = (  -0.4949747  -0.6363961   0.2121320), wk =   0.0160000
        k(   61) = (   0.4949747   0.6363961   0.2121320), wk =   0.0160000
        k(   62) = (   0.4949747  -0.6363961  -0.2121320), wk =   0.0160000
        k(   63) = (  -0.3535534  -0.0707107  -0.4949747), wk =   0.0160000
        k(   64) = (   0.3535534   0.0707107  -0.4949747), wk =   0.0160000
        k(   65) = (  -0.0707107   0.3535534  -0.4949747), wk =   0.0160000
        k(   66) = (   0.0707107  -0.3535534  -0.4949747), wk =   0.0160000
        k(   67) = (  -0.0707107  -0.3535534   0.4949747), wk =   0.0160000
        k(   68) = (   0.0707107   0.3535534   0.4949747), wk =   0.0160000
        k(   69) = (   0.4949747  -0.0707107  -0.3535534), wk =   0.0160000
        k(   70) = (  -0.3535534   0.4949747  -0.0707107), wk =   0.0160000
        k(   71) = (  -0.3535534  -0.4949747   0.0707107), wk =   0.0160000
        k(   72) = (   0.3535534   0.4949747   0.0707107), wk =   0.0160000
        k(   73) = (   0.3535534  -0.4949747  -0.0707107), wk =   0.0160000
        k(   74) = (  -0.2121320   0.0707107  -0.3535534), wk =   0.0160000
        k(   75) = (   0.2121320  -0.0707107  -0.3535534), wk =   0.0160000
        k(   76) = (   0.0707107   0.2121320  -0.3535534), wk =   0.0160000
        k(   77) = (  -0.0707107  -0.2121320  -0.3535534), wk =   0.0160000
        k(   78) = (   0.0707107  -0.2121320   0.3535534), wk =   0.0160000
        k(   79) = (  -0.0707107   0.2121320   0.3535534), wk =   0.0160000
        k(   80) = (   0.3535534   0.0707107  -0.2121320), wk =   0.0160000
        k(   81) = (  -0.2121320   0.3535534   0.0707107), wk =   0.0160000
        k(   82) = (  -0.2121320  -0.3535534  -0.0707107), wk =   0.0160000
        k(   83) = (   0.2121320   0.3535534  -0.0707107), wk =   0.0160000
        k(   84) = (   0.2121320  -0.3535534   0.0707107), wk =   0.0160000
        k(   85) = (   0.0707107  -0.7778175  -0.0707107), wk =   0.0080000
        k(   86) = (  -0.0707107   0.7778175  -0.0707107), wk =   0.0160000
        k(   87) = (  -0.7778175  -0.0707107  -0.0707107), wk =   0.0160000
        k(   88) = (   0.7778175   0.0707107  -0.0707107), wk =   0.0160000
        k(   89) = (  -0.7778175   0.0707107   0.0707107), wk =   0.0160000
        k(   90) = (   0.7778175  -0.0707107   0.0707107), wk =   0.0160000
        k(   91) = (   0.2121320  -0.6363961   0.0707107), wk =   0.0160000
        k(   92) = (  -0.2121320   0.6363961   0.0707107), wk =   0.0160000
        k(   93) = (  -0.6363961  -0.2121320   0.0707107), wk =   0.0160000
        k(   94) = (   0.6363961   0.2121320   0.0707107), wk =   0.0160000
        k(   95) = (  -0.6363961   0.2121320  -0.0707107), wk =   0.0160000
        k(   96) = (   0.6363961  -0.2121320  -0.0707107), wk =   0.0160000
        k(   97) = (  -0.0707107  -0.6363961   0.2121320), wk =   0.0160000
        k(   98) = (   0.2121320  -0.0707107  -0.6363961), wk =   0.0160000
        k(   99) = (   0.2121320   0.0707107   0.6363961), wk =   0.0160000
        k(  100) = (  -0.2121320  -0.0707107   0.6363961), wk =   0.0160000
        k(  101) = (  -0.2121320   0.0707107  -0.6363961), wk =   0.0160000
        k(  102) = (   0.3535534  -0.4949747   0.2121320), wk =   0.0160000
        k(  103) = (  -0.3535534   0.4949747   0.2121320), wk =   0.0160000
        k(  104) = (  -0.4949747  -0.3535534   0.2121320), wk =   0.0080000
        k(  105) = (   0.4949747   0.3535534   0.2121320), wk =   0.0160000
        k(  106) = (   0.4949747  -0.3535534  -0.2121320), wk =   0.0080000
        k(  107) = (  -0.2121320  -0.4949747   0.3535534), wk =   0.0160000
        k(  108) = (   0.0707107  -0.4949747  -0.0707107), wk =   0.0080000
        k(  109) = (  -0.0707107   0.4949747  -0.0707107), wk =   0.0160000
        k(  110) = (  -0.4949747  -0.0707107  -0.0707107), wk =   0.0160000
        k(  111) = (   0.4949747   0.0707107  -0.0707107), wk =   0.0160000
        k(  112) = (  -0.4949747   0.0707107   0.0707107), wk =   0.0160000
        k(  113) = (   0.4949747  -0.0707107   0.0707107), wk =   0.0160000
        k(  114) = (   0.2121320   0.2121320  -0.2121320), wk =   0.0080000
        k(  115) = (  -0.2121320  -0.2121320  -0.2121320), wk =   0.0160000
        k(  116) = (  -0.3535534  -0.3535534  -0.7778175), wk =   0.0160000
        k(  117) = (   0.3535534   0.3535534  -0.7778175), wk =   0.0160000
        k(  118) = (   0.3535534  -0.3535534  -0.7778175), wk =   0.0160000
        k(  119) = (  -0.3535534   0.7778175  -0.3535534), wk =   0.0160000
        k(  120) = (  -0.3535534  -0.7778175   0.3535534), wk =   0.0080000
        k(  121) = (   0.3535534  -0.7778175  -0.3535534), wk =   0.0080000
        k(  122) = (  -0.2121320  -0.2121320  -0.6363961), wk =   0.0160000
        k(  123) = (   0.2121320   0.2121320  -0.6363961), wk =   0.0160000
        k(  124) = (   0.2121320  -0.2121320  -0.6363961), wk =   0.0160000
        k(  125) = (  -0.2121320   0.6363961  -0.2121320), wk =   0.0160000
        k(  126) = (  -0.2121320  -0.6363961   0.2121320), wk =   0.0080000
        k(  127) = (   0.2121320  -0.6363961  -0.2121320), wk =   0.0080000
        k(  128) = (   0.2121320  -0.9192388  -0.2121320), wk =   0.0080000
        k(  129) = (  -0.2121320   0.9192388  -0.2121320), wk =   0.0160000
        k(  130) = (  -0.9192388  -0.2121320  -0.2121320), wk =   0.0160000
        k(  131) = (   0.9192388   0.2121320  -0.2121320), wk =   0.0160000
        k(  132) = (  -0.9192388   0.2121320   0.2121320), wk =   0.0160000
        k(  133) = (   0.9192388  -0.2121320   0.2121320), wk =   0.0160000
        k(  134) = (   0.3535534  -0.7778175  -0.0707107), wk =   0.0160000
        k(  135) = (  -0.3535534   0.7778175  -0.0707107), wk =   0.0160000
        k(  136) = (  -0.7778175  -0.3535534  -0.0707107), wk =   0.0080000
        k(  137) = (   0.7778175   0.3535534  -0.0707107), wk =   0.0160000
        k(  138) = (   0.7778175  -0.3535534   0.0707107), wk =   0.0080000
        k(  139) = (   0.0707107  -0.7778175   0.3535534), wk =   0.0160000
        k(  140) = (  -0.3535534  -0.3535534   0.3535534), wk =   0.0040000
        k(  141) = (   0.3535534   0.3535534   0.3535534), wk =   0.0080000

                       cryst. coord.
        k(    1) = (   0.1000000   0.1000000   0.1000000), wk =   0.0080000
        k(    2) = (   0.1000000   0.1000000   0.3000000), wk =   0.0160000
        k(    3) = (   0.1000000   0.1000000  -0.5000000), wk =   0.0160000
        k(    4) = (   0.1000000   0.1000000  -0.3000000), wk =   0.0160000
        k(    5) = (   0.1000000   0.1000000  -0.1000000), wk =   0.0160000
        k(    6) = (   0.1000000   0.3000000   0.3000000), wk =   0.0080000
        k(    7) = (   0.1000000   0.3000000  -0.5000000), wk =   0.0160000
        k(    8) = (   0.1000000   0.3000000  -0.3000000), wk =   0.0160000
        k(    9) = (   0.1000000   0.3000000  -0.1000000), wk =   0.0160000
        k(   10) = (   0.1000000  -0.5000000  -0.5000000), wk =   0.0080000
        k(   11) = (   0.1000000  -0.5000000  -0.3000000), wk =   0.0160000
        k(   12) = (   0.1000000  -0.5000000  -0.1000000), wk =   0.0160000
        k(   13) = (   0.1000000  -0.3000000  -0.3000000), wk =   0.0080000
        k(   14) = (   0.3000000   0.3000000   0.3000000), wk =   0.0080000
        k(   15) = (   0.3000000   0.3000000  -0.5000000), wk =   0.0160000
        k(   16) = (   0.3000000   0.3000000  -0.3000000), wk =   0.0160000
        k(   17) = (   0.3000000  -0.5000000  -0.5000000), wk =   0.0080000
        k(   18) = (   0.3000000  -0.5000000  -0.3000000), wk =   0.0160000
        k(   19) = (  -0.5000000  -0.5000000  -0.5000000), wk =   0.0040000
        k(   20) = (  -0.1000000  -0.0000000  -0.0000000), wk =   0.0080000
        k(   21) = (  -0.0000000  -0.1000000   0.0000000), wk =   0.0160000
        k(   22) = (  -0.1000000   0.2000000   0.0000000), wk =   0.0160000
        k(   23) = (   0.2000000  -0.1000000  -0.0000000), wk =   0.0160000
        k(   24) = (   0.2000000   0.2000000   0.3000000), wk =   0.0160000
        k(   25) = (  -0.0000000   0.1000000  -0.2000000), wk =   0.0160000
        k(   26) = (  -0.3000000  -0.1000000  -0.1000000), wk =   0.0080000
        k(   27) = (   0.3000000   0.2000000   0.2000000), wk =   0.0080000
        k(   28) = (  -0.1000000  -0.6000000   0.0000000), wk =   0.0160000
        k(   29) = (  -0.6000000  -0.1000000  -0.0000000), wk =   0.0160000
        k(   30) = (  -0.6000000  -0.6000000  -0.5000000), wk =   0.0160000
        k(   31) = (  -0.0000000   0.1000000   0.6000000), wk =   0.0160000
        k(   32) = (   0.5000000  -0.1000000  -0.1000000), wk =   0.0080000
        k(   33) = (  -0.5000000  -0.6000000  -0.6000000), wk =   0.0080000
        k(   34) = (  -0.1000000  -0.4000000  -0.0000000), wk =   0.0160000
        k(   35) = (  -0.4000000  -0.1000000   0.0000000), wk =   0.0160000
        k(   36) = (  -0.4000000  -0.4000000  -0.3000000), wk =   0.0160000
        k(   37) = (   0.0000000   0.1000000   0.4000000), wk =   0.0160000
        k(   38) = (   0.3000000  -0.1000000  -0.1000000), wk =   0.0080000
        k(   39) = (  -0.3000000  -0.4000000  -0.4000000), wk =   0.0080000
        k(   40) = (  -0.1000000  -0.2000000   0.0000000), wk =   0.0160000
        k(   41) = (  -0.2000000  -0.1000000  -0.0000000), wk =   0.0160000
        k(   42) = (  -0.2000000  -0.2000000  -0.1000000), wk =   0.0160000
        k(   43) = (   0.0000000   0.1000000   0.2000000), wk =   0.0160000
        k(   44) = (   0.1000000  -0.1000000  -0.1000000), wk =   0.0080000
        k(   45) = (  -0.1000000  -0.2000000  -0.2000000), wk =   0.0080000
        k(   46) = (  -0.1000000   0.2000000   0.2000000), wk =   0.0080000
        k(   47) = (   0.0000000  -0.3000000  -0.2000000), wk =   0.0160000
        k(   48) = (  -0.3000000  -0.1000000  -0.3000000), wk =   0.0160000
        k(   49) = (   0.2000000   0.0000000   0.3000000), wk =   0.0160000
        k(   50) = (  -0.2000000   0.1000000  -0.2000000), wk =   0.0160000
        k(   51) = (   0.3000000  -0.0000000   0.2000000), wk =   0.0160000
        k(   52) = (  -0.1000000  -0.6000000   0.2000000), wk =   0.0160000
        k(   53) = (  -0.8000000  -0.3000000  -0.2000000), wk =   0.0160000
        k(   54) = (  -0.3000000  -0.1000000   0.5000000), wk =   0.0160000
        k(   55) = (  -0.6000000  -0.8000000  -0.5000000), wk =   0.0160000
        k(   56) = (   0.6000000   0.1000000  -0.2000000), wk =   0.0160000
        k(   57) = (   0.3000000   0.8000000   0.2000000), wk =   0.0160000
        k(   58) = (  -0.8000000  -0.5000000  -0.6000000), wk =   0.0160000
        k(   59) = (   0.2000000   0.3000000   0.8000000), wk =   0.0160000
        k(   60) = (   0.5000000  -0.3000000  -0.1000000), wk =   0.0160000
        k(   61) = (  -0.2000000   0.6000000   0.1000000), wk =   0.0160000
        k(   62) = (  -0.5000000  -0.6000000  -0.8000000), wk =   0.0160000
        k(   63) = (  -0.1000000  -0.4000000   0.2000000), wk =   0.0160000
        k(   64) = (  -0.6000000  -0.3000000  -0.2000000), wk =   0.0160000
        k(   65) = (  -0.3000000  -0.1000000   0.3000000), wk =   0.0160000
        k(   66) = (  -0.4000000  -0.6000000  -0.3000000), wk =   0.0160000
        k(   67) = (   0.4000000   0.1000000  -0.2000000), wk =   0.0160000
        k(   68) = (   0.3000000   0.6000000   0.2000000), wk =   0.0160000
        k(   69) = (  -0.6000000  -0.3000000  -0.4000000), wk =   0.0160000
        k(   70) = (   0.2000000   0.3000000   0.6000000), wk =   0.0160000
        k(   71) = (   0.3000000  -0.3000000  -0.1000000), wk =   0.0160000
        k(   72) = (  -0.2000000   0.4000000   0.1000000), wk =   0.0160000
        k(   73) = (  -0.3000000  -0.4000000  -0.6000000), wk =   0.0160000
        k(   74) = (  -0.1000000  -0.2000000   0.2000000), wk =   0.0160000
        k(   75) = (  -0.4000000  -0.3000000  -0.2000000), wk =   0.0160000
        k(   76) = (  -0.3000000  -0.1000000   0.1000000), wk =   0.0160000
        k(   77) = (  -0.2000000  -0.4000000  -0.1000000), wk =   0.0160000
        k(   78) = (   0.2000000   0.1000000  -0.2000000), wk =   0.0160000
        k(   79) = (   0.3000000   0.4000000   0.2000000), wk =   0.0160000
        k(   80) = (  -0.4000000  -0.1000000  -0.2000000), wk =   0.0160000
        k(   81) = (   0.2000000   0.3000000   0.4000000), wk =   0.0160000
        k(   82) = (   0.1000000  -0.3000000  -0.1000000), wk =   0.0160000
        k(   83) = (  -0.2000000   0.2000000   0.1000000), wk =   0.0160000
        k(   84) = (  -0.1000000  -0.2000000  -0.4000000), wk =   0.0160000
        k(   85) = (  -0.1000000  -0.6000000  -0.6000000), wk =   0.0080000
        k(   86) = (   0.0000000   0.5000000   0.6000000), wk =   0.0160000
        k(   87) = (   0.5000000  -0.1000000   0.5000000), wk =   0.0160000
        k(   88) = (  -0.6000000   0.0000000  -0.5000000), wk =   0.0160000
        k(   89) = (   0.6000000   0.1000000   0.6000000), wk =   0.0160000
        k(   90) = (  -0.5000000  -0.0000000  -0.6000000), wk =   0.0160000
        k(   91) = (  -0.1000000  -0.4000000  -0.6000000), wk =   0.0160000
        k(   92) = (   0.2000000   0.5000000   0.6000000), wk =   0.0160000
        k(   93) = (   0.5000000  -0.1000000   0.3000000), wk =   0.0160000
        k(   94) = (  -0.4000000   0.2000000  -0.3000000), wk =   0.0160000
        k(   95) = (   0.4000000   0.1000000   0.6000000), wk =   0.0160000
        k(   96) = (  -0.5000000  -0.2000000  -0.6000000), wk =   0.0160000
        k(   97) = (   0.2000000  -0.3000000  -0.4000000), wk =   0.0160000
        k(   98) = (  -0.6000000  -0.5000000  -0.2000000), wk =   0.0160000
        k(   99) = (   0.3000000   0.5000000  -0.1000000), wk =   0.0160000
        k(  100) = (   0.6000000   0.4000000   0.1000000), wk =   0.0160000
        k(  101) = (  -0.3000000  -0.4000000   0.2000000), wk =   0.0160000
        k(  102) = (  -0.1000000  -0.2000000  -0.6000000), wk =   0.0160000
        k(  103) = (   0.4000000   0.5000000   0.6000000), wk =   0.0160000
        k(  104) = (   0.5000000  -0.1000000   0.1000000), wk =   0.0080000
        k(  105) = (  -0.2000000   0.4000000  -0.1000000), wk =   0.0160000
        k(  106) = (  -0.5000000  -0.4000000  -0.6000000), wk =   0.0080000
        k(  107) = (   0.4000000  -0.1000000  -0.2000000), wk =   0.0160000
        k(  108) = (  -0.1000000  -0.4000000  -0.4000000), wk =   0.0080000
        k(  109) = (   0.0000000   0.3000000   0.4000000), wk =   0.0160000
        k(  110) = (   0.3000000  -0.1000000   0.3000000), wk =   0.0160000
        k(  111) = (  -0.4000000   0.0000000  -0.3000000), wk =   0.0160000
        k(  112) = (   0.4000000   0.1000000   0.4000000), wk =   0.0160000
        k(  113) = (  -0.3000000  -0.0000000  -0.4000000), wk =   0.0160000
        k(  114) = (  -0.3000000   0.0000000   0.0000000), wk =   0.0080000
        k(  115) = (   0.0000000  -0.3000000  -0.0000000), wk =   0.0160000
        k(  116) = (  -0.3000000  -0.8000000   0.0000000), wk =   0.0160000
        k(  117) = (  -0.8000000  -0.3000000  -0.0000000), wk =   0.0160000
        k(  118) = (  -0.8000000  -0.8000000  -0.5000000), wk =   0.0160000
        k(  119) = (  -0.0000000   0.3000000   0.8000000), wk =   0.0160000
        k(  120) = (   0.5000000  -0.3000000  -0.3000000), wk =   0.0080000
        k(  121) = (  -0.5000000  -0.8000000  -0.8000000), wk =   0.0080000
        k(  122) = (  -0.3000000  -0.6000000   0.0000000), wk =   0.0160000
        k(  123) = (  -0.6000000  -0.3000000  -0.0000000), wk =   0.0160000
        k(  124) = (  -0.6000000  -0.6000000  -0.3000000), wk =   0.0160000
        k(  125) = (   0.0000000   0.3000000   0.6000000), wk =   0.0160000
        k(  126) = (   0.3000000  -0.3000000  -0.3000000), wk =   0.0080000
        k(  127) = (  -0.3000000  -0.6000000  -0.6000000), wk =   0.0080000
        k(  128) = (  -0.3000000  -0.8000000  -0.8000000), wk =   0.0080000
        k(  129) = (  -0.0000000   0.5000000   0.8000000), wk =   0.0160000
        k(  130) = (   0.5000000  -0.3000000   0.5000000), wk =   0.0160000
        k(  131) = (  -0.8000000  -0.0000000  -0.5000000), wk =   0.0160000
        k(  132) = (   0.8000000   0.3000000   0.8000000), wk =   0.0160000
        k(  133) = (  -0.5000000   0.0000000  -0.8000000), wk =   0.0160000
        k(  134) = (  -0.3000000  -0.6000000  -0.8000000), wk =   0.0160000
        k(  135) = (   0.2000000   0.5000000   0.8000000), wk =   0.0160000
        k(  136) = (   0.5000000  -0.3000000   0.3000000), wk =   0.0080000
        k(  137) = (  -0.6000000   0.2000000  -0.3000000), wk =   0.0160000
        k(  138) = (  -0.5000000  -0.2000000  -0.8000000), wk =   0.0080000
        k(  139) = (   0.2000000  -0.3000000  -0.6000000), wk =   0.0160000
        k(  140) = (   0.5000000   0.0000000   0.0000000), wk =   0.0040000
        k(  141) = (   0.0000000   0.5000000  -0.0000000), wk =   0.0080000

     Dense  grid:    26717 G-vectors     FFT dimensions: (  45,  45,  45)

     Dynamical RAM for                 wfc:       0.07 MB

     Dynamical RAM for     wfc (w. buffer):       9.64 MB

     Dynamical RAM for           str. fact:       0.02 MB

     Dynamical RAM for           local pot:       0.00 MB

     Dynamical RAM for          nlocal pot:       0.17 MB

     Dynamical RAM for                qrad:       0.12 MB

     Dynamical RAM for          rho,v,vnew:       0.14 MB

     Dynamical RAM for               rhoin:       0.05 MB

     Dynamical RAM for            rho*nmix:       0.27 MB

     Dynamical RAM for           G-vectors:       0.07 MB

     Dynamical RAM for          h,s,v(r/c):       0.01 MB

     Dynamical RAM for          <psi|beta>:       0.04 MB

     Dynamical RAM for                 psi:       0.14 MB

     Dynamical RAM for                hpsi:       0.14 MB

     Dynamical RAM for      wfcinit/wfcrot:       0.37 MB

     Estimated static dynamical RAM per process >      10.40 MB

     Estimated max dynamical RAM per process >      11.04 MB

     Estimated total dynamical RAM >     264.89 MB

     Initial potential from superposition of free atoms

     starting charge   63.99115, renormalised to   64.00000
     Starting wfcs are   64 randomized atomic wfcs

     total cpu time spent up to now is        1.9 secs

     Self-consistent Calculation

     iteration #  1     ecut=    20.00 Ry     beta= 0.70
     Davidson diagonalization with overlap

---- Real-time Memory Report at c_bands before calling an iterative solver
            97 MiB given to the printing process from OS
             0 MiB allocation reported by mallinfo(arena+hblkhd)
         74238 MiB available memory on the node where the printing process lives
------------------
     ethr =  1.00E-02,  avg # of iterations =  2.0

     Threshold (ethr) on eigenvalues was too large:
     Diagonalizing with lowered threshold

     Davidson diagonalization with overlap

---- Real-time Memory Report at c_bands before calling an iterative solver
           103 MiB given to the printing process from OS
             0 MiB allocation reported by mallinfo(arena+hblkhd)
         74206 MiB available memory on the node where the printing process lives
------------------
     ethr =  5.68E-04,  avg # of iterations =  2.0

     total cpu time spent up to now is        7.0 secs

     total energy              =    -125.91134521 Ry
     estimated scf accuracy    <       0.42760339 Ry

     iteration #  2     ecut=    20.00 Ry     beta= 0.70
     Davidson diagonalization with overlap

---- Real-time Memory Report at c_bands before calling an iterative solver
           103 MiB given to the printing process from OS
             0 MiB allocation reported by mallinfo(arena+hblkhd)
         74187 MiB available memory on the node where the printing process lives
------------------
     ethr =  6.68E-04,  avg # of iterations =  1.0

     total cpu time spent up to now is        9.0 secs

     total energy              =    -125.92486572 Ry
     estimated scf accuracy    <       0.02450639 Ry

     iteration #  3     ecut=    20.00 Ry     beta= 0.70
     Davidson diagonalization with overlap

---- Real-time Memory Report at c_bands before calling an iterative solver
           106 MiB given to the printing process from OS
             0 MiB allocation reported by mallinfo(arena+hblkhd)
         74180 MiB available memory on the node where the printing process lives
------------------
     ethr =  3.83E-05,  avg # of iterations =  2.4

     total cpu time spent up to now is       12.0 secs

     total energy              =    -125.92953955 Ry
     estimated scf accuracy    <       0.00072321 Ry

     iteration #  4     ecut=    20.00 Ry     beta= 0.70
     Davidson diagonalization with overlap

---- Real-time Memory Report at c_bands before calling an iterative solver
           107 MiB given to the printing process from OS
             0 MiB allocation reported by mallinfo(arena+hblkhd)
         74159 MiB available memory on the node where the printing process lives
------------------
     ethr =  1.13E-06,  avg # of iterations =  5.7

     total cpu time spent up to now is       16.8 secs

     total energy              =    -125.93011836 Ry
     estimated scf accuracy    <       0.00004077 Ry

     iteration #  5     ecut=    20.00 Ry     beta= 0.70
     Davidson diagonalization with overlap

---- Real-time Memory Report at c_bands before calling an iterative solver
           107 MiB given to the printing process from OS
             0 MiB allocation reported by mallinfo(arena+hblkhd)
         74143 MiB available memory on the node where the printing process lives
------------------
     ethr =  6.37E-08,  avg # of iterations =  5.1

     total cpu time spent up to now is       21.0 secs

     total energy              =    -125.93013902 Ry
     estimated scf accuracy    <       0.00000227 Ry

     iteration #  6     ecut=    20.00 Ry     beta= 0.70
     Davidson diagonalization with overlap

---- Real-time Memory Report at c_bands before calling an iterative solver
           107 MiB given to the printing process from OS
             0 MiB allocation reported by mallinfo(arena+hblkhd)
         74134 MiB available memory on the node where the printing process lives
------------------
     ethr =  3.55E-09,  avg # of iterations =  5.2

     total cpu time spent up to now is       25.4 secs

     total energy              =    -125.93014025 Ry
     estimated scf accuracy    <       0.00000051 Ry

     iteration #  7     ecut=    20.00 Ry     beta= 0.70
     Davidson diagonalization with overlap

---- Real-time Memory Report at c_bands before calling an iterative solver
           107 MiB given to the printing process from OS
             0 MiB allocation reported by mallinfo(arena+hblkhd)
         74113 MiB available memory on the node where the printing process lives
------------------
     ethr =  8.00E-10,  avg # of iterations =  2.7

     total cpu time spent up to now is       28.5 secs

     End of self-consistent calculation

          k =-0.0707 0.0707 0.0707 (  3374 PWs)   bands (ev):

    -5.7285  -3.6180  -3.4757  -3.4730  -3.4684  -2.0728  -2.0696  -2.0661
    -1.3219  -1.3184  -1.3154  -0.8156  -0.8101  -0.8091  -0.6519   3.0694
     3.0707   3.0739   3.2196   3.2220   3.2225   4.5683   4.5704   4.5786
     4.7332   4.7374   4.7385   4.8187   4.8232   5.6299   5.9181   5.9238

     occupation numbers 
     1.0000   1.0000   1.0000   1.0000   1.0000   1.0000   1.0000   1.0000
     1.0000   1.0000   1.0000   1.0000   1.0000   1.0000   1.0000   1.0000
     1.0000   1.0000   1.0000   1.0000   1.0000   1.0000   1.0000   1.0000
     1.0000   1.0000   1.0000   1.0000   1.0000   1.0000   1.0000   1.0000

          k =-0.2121 0.2121-0.0707 (  3356 PWs)   bands (ev):

    -5.5581  -4.0163  -3.6983  -3.3042  -3.2988  -2.7178  -2.7130  -2.0387
    -1.2682  -0.7410  -0.7353  -0.5484  -0.5439  -0.3015   0.0522   2.3771
     2.8546   2.8564   3.2319   3.2358   3.3563   3.6018   3.6072   4.1690
     4.4359   4.4391   4.5052   4.5269   4.7441   4.7575   5.3694   5.8447

     occupation numbers 
     1.0000   1.0000   1.0000   1.0000   1.0000   1.0000   1.0000   1.0000
     1.0000   1.0000   1.0000   1.0000   1.0000   1.0000   1.0000   1.0000
     1.0000   1.0000   1.0000   1.0000   1.0000   1.0000   1.0000   1.0000
     1.0000   1.0000   1.0000   1.0000   1.0000   1.0000   1.0000   1.0000

          k = 0.3536-0.3536 0.4950 (  3344 PWs)   bands (ev):

    -5.1403  -4.7379  -3.5945  -3.1795  -3.1746  -3.0246  -3.0194  -2.6059
    -0.7031  -0.5259  -0.5207  -0.0670  -0.0623   0.1259   1.5576   2.0771
     2.5646   2.5678   2.5753   2.5768   2.7174   3.1482   3.6044   3.6089
     3.6890   3.8980   3.9009   4.0265   4.9105   4.9449   5.0681   5.5034

     occupation numbers 
     1.0000   1.0000   1.0000   1.0000   1.0000   1.0000   1.0000   1.0000
     1.0000   1.0000   1.0000   1.0000   1.0000   1.0000   1.0000   1.0000
     1.0000   1.0000   1.0000   1.0000   1.0000   1.0000   1.0000   1.0000
     1.0000   1.0000   1.0000   1.0000   1.0000   1.0000   1.0000   1.0000

          k = 0.2121-0.2121 0.3536 (  3346 PWs)   bands (ev):

    -5.3056  -4.5076  -3.4459  -3.4408  -3.2845  -3.0506  -2.6105  -2.6055
    -0.6708  -0.6452  -0.6402  -0.2439  -0.2387   0.1281   1.0173   2.2402
     2.2421   2.7464   2.7833   3.1781   3.1809   3.3206   3.4277   3.4305
     3.5796   4.1414   4.1473   4.1655   4.6597   5.1441   5.2243   5.4543

     occupation numbers 
     1.0000   1.0000   1.0000   1.0000   1.0000   1.0000   1.0000   1.0000
     1.0000   1.0000   1.0000   1.0000   1.0000   1.0000   1.0000   1.0000
     1.0000   1.0000   1.0000   1.0000   1.0000   1.0000   1.0000   1.0000
     1.0000   1.0000   1.0000   1.0000   1.0000   1.0000   1.0000   1.0000

          k = 0.0707-0.0707 0.2121 (  3342 PWs)   bands (ev):

    -5.6430  -3.7823  -3.5330  -3.5277  -3.3901  -2.7667  -2.0392  -2.0344
    -1.3050  -1.3004  -0.7648  -0.6199  -0.6144  -0.5238  -0.3405   2.7620
     2.7643   3.1393   3.1421   3.1557   3.2978   3.9618   4.1667   4.1705
     4.5358   4.6416   4.6750   4.6832   4.8757   5.0790   5.6239   5.7585

     occupation numbers 
     1.0000   1.0000   1.0000   1.0000   1.0000   1.0000   1.0000   1.0000
     1.0000   1.0000   1.0000   1.0000   1.0000   1.0000   1.0000   1.0000
     1.0000   1.0000   1.0000   1.0000   1.0000   1.0000   1.0000   1.0000
     1.0000   1.0000   1.0000   1.0000   1.0000   1.0000   1.0000   1.0000

          k =-0.0707 0.3536 0.0707 (  3354 PWs)   bands (ev):

    -5.4726  -3.9350  -3.6161  -3.6160  -3.4021  -3.3644  -1.9803  -1.9803
    -1.2787  -1.2785  -0.5473  -0.2684  -0.2683   0.0932   0.3004   2.4409
     2.4425   2.9070   2.9088   3.2550   3.3222   3.4527   3.5437   3.5449
     3.9253   4.4015   4.5524   4.6225   4.6241   4.9102   5.2006   5.2986

     occupation numbers 
     1.0000   1.0000   1.0000   1.0000   1.0000   1.0000   1.0000   1.0000
     1.0000   1.0000   1.0000   1.0000   1.0000   1.0000   1.0000   1.0000
     1.0000   1.0000   1.0000   1.0000   1.0000   1.0000   1.0000   1.0000
     1.0000   1.0000   1.0000   1.0000   1.0000   1.0000   1.0000   1.0000

          k = 0.4950-0.2121 0.6364 (  3344 PWs)   bands (ev):

    -5.1361  -4.3422  -3.9612  -3.8994  -3.2915  -3.0467  -2.4884  -2.1105
    -1.0930  -0.6897  -0.4825  -0.2108   0.5763   1.0004   1.0504   1.8966
     2.2188   2.3228   2.5659   2.9166   3.1733   3.1762   3.2334   3.3017
     3.6604   3.7108   4.0786   4.1436   4.4717   4.4775   4.9726   5.1133

     occupation numbers 
     1.0000   1.0000   1.0000   1.0000   1.0000   1.0000   1.0000   1.0000
     1.0000   1.0000   1.0000   1.0000   1.0000   1.0000   1.0000   1.0000
     1.0000   1.0000   1.0000   1.0000   1.0000   1.0000   1.0000   1.0000
     1.0000   1.0000   1.0000   1.0000   1.0000   1.0000   1.0000   1.0000

          k = 0.3536-0.0707 0.4950 (  3340 PWs)   bands (ev):

    -4.9729  -4.5699  -4.1710  -3.7623  -3.0472  -2.8713  -2.7324  -2.3842
    -0.8657  -0.6722  -0.5239  -0.1268   0.7433   1.0226   1.5634   1.7503
     2.1326   2.2694   2.3267   2.6093   2.9177   3.3350   3.5477   3.5778
     3.6580   3.6657   3.7686   4.0353   4.0501   4.2712   4.7549   5.3729

     occupation numbers 
     1.0000   1.0000   1.0000   1.0000   1.0000   1.0000   1.0000   1.0000
     1.0000   1.0000   1.0000   1.0000   1.0000   1.0000   1.0000   1.0000
     1.0000   1.0000   1.0000   1.0000   1.0000   1.0000   1.0000   1.0000
     1.0000   1.0000   1.0000   1.0000   1.0000   1.0000   1.0000   1.0000

          k = 0.2121 0.0707 0.3536 (  3357 PWs)   bands (ev):

    -5.3887  -4.2079  -3.8485  -3.3398  -3.2816  -3.1342  -2.6201  -2.0533
    -1.2027  -0.6855  -0.5957  -0.5201   0.1116   0.2288   0.5311   2.0684
     2.5213   2.9394   3.0375   3.0545   3.1026   3.3425   3.4211   3.7814
     3.8513   4.2216   4.2648   4.2661   4.4801   4.8946   4.9330   5.5993

     occupation numbers 
     1.0000   1.0000   1.0000   1.0000   1.0000   1.0000   1.0000   1.0000
     1.0000   1.0000   1.0000   1.0000   1.0000   1.0000   1.0000   1.0000
     1.0000   1.0000   1.0000   1.0000   1.0000   1.0000   1.0000   1.0000
     1.0000   1.0000   1.0000   1.0000   1.0000   1.0000   1.0000   1.0000

          k =-0.0707-0.7778 0.0707 (  3339 PWs)   bands (ev):

    -4.8812  -4.4639  -4.1062  -3.7353  -3.7352  -3.3948  -1.8772  -1.8772
    -1.2445  -1.2445   0.1027   0.5147   0.5148   0.9890   1.9920   2.0583
     2.0589   2.1177   2.4221   2.4223   2.5261   2.5266   2.7562   2.8334
     3.9049   3.9776   4.3092   4.3398   4.4452   4.5546   4.5548   4.9212

     occupation numbers 
     1.0000   1.0000   1.0000   1.0000   1.0000   1.0000   1.0000   1.0000
     1.0000   1.0000   1.0000   1.0000   1.0000   1.0000   1.0000   1.0000
     1.0000   1.0000   1.0000   1.0000   1.0000   1.0000   1.0000   1.0000
     1.0000   1.0000   1.0000   1.0000   1.0000   1.0000   1.0000   1.0000

          k =-0.2121-0.6364-0.0707 (  3334 PWs)   bands (ev):

    -4.8017  -4.4111  -4.3887  -4.0193  -3.3082  -3.0130  -2.3466  -2.2066
    -0.9643  -0.8115  -0.2771   0.0656   0.9452   1.4846   1.7552   1.8733
     1.9101   1.9936   2.1724   2.4763   2.8047   2.8894   2.9968   3.1613
     3.6385   4.0064   4.0306   4.0846   4.0986   4.4699   4.5877   5.0105

     occupation numbers 
     1.0000   1.0000   1.0000   1.0000   1.0000   1.0000   1.0000   1.0000
     1.0000   1.0000   1.0000   1.0000   1.0000   1.0000   1.0000   1.0000
     1.0000   1.0000   1.0000   1.0000   1.0000   1.0000   1.0000   1.0000
     1.0000   1.0000   1.0000   1.0000   1.0000   1.0000   1.0000   1.0000

          k =-0.3536-0.4950-0.2121 (  3344 PWs)   bands (ev):

    -4.8941  -4.8940  -3.7072  -3.7004  -3.0373  -3.0318  -2.6385  -2.6333
    -0.7411  -0.7348  -0.2984  -0.2893   0.4839   0.4915   2.0485   2.0535
     2.1250   2.1259   2.4155   2.4202   3.0362   3.0381   3.5597   3.5640
     3.7430   3.7461   3.8774   3.8804   4.5062   4.5132   5.2410   5.2493

     occupation numbers 
     1.0000   1.0000   1.0000   1.0000   1.0000   1.0000   1.0000   1.0000
     1.0000   1.0000   1.0000   1.0000   1.0000   1.0000   1.0000   1.0000
     1.0000   1.0000   1.0000   1.0000   1.0000   1.0000   1.0000   1.0000
     1.0000   1.0000   1.0000   1.0000   1.0000   1.0000   1.0000   1.0000

          k =-0.0707-0.4950 0.0707 (  3354 PWs)   bands (ev):

    -5.2180  -4.0463  -3.9697  -3.6920  -3.6919  -3.3804  -1.9191  -1.9190
    -1.2558  -1.2556  -0.1975   0.1571   0.1572   0.5748   1.1468   2.1880
     2.1891   2.5806   2.6721   2.6732   2.8960   2.8965   3.2688   3.5696
     3.6355   3.6800   4.4836   4.5810   4.5819   4.7546   4.7944   4.9191

     occupation numbers 
     1.0000   1.0000   1.0000   1.0000   1.0000   1.0000   1.0000   1.0000
     1.0000   1.0000   1.0000   1.0000   1.0000   1.0000   1.0000   1.0000
     1.0000   1.0000   1.0000   1.0000   1.0000   1.0000   1.0000   1.0000
     1.0000   1.0000   1.0000   1.0000   1.0000   1.0000   1.0000   1.0000

          k =-0.2121 0.2121 0.2121 (  3359 PWs)   bands (ev):

    -5.4738  -4.2924  -3.3628  -3.3600  -3.3556  -2.6797  -2.6766  -2.6728
    -0.5838  -0.5785  -0.5765  -0.5588  -0.5547  -0.5536   0.5032   2.5108
     2.5118   2.5151   3.4295   3.4323   3.4326   3.4563   3.4580   3.4641
     3.9516   4.3252   4.3287   4.3292   4.9588   4.9636   5.5984   5.6035

     occupation numbers 
     1.0000   1.0000   1.0000   1.0000   1.0000   1.0000   1.0000   1.0000
     1.0000   1.0000   1.0000   1.0000   1.0000   1.0000   1.0000   1.0000
     1.0000   1.0000   1.0000   1.0000   1.0000   1.0000   1.0000   1.0000
     1.0000   1.0000   1.0000   1.0000   1.0000   1.0000   1.0000   1.0000

          k = 0.3536-0.3536 0.7778 (  3345 PWs)   bands (ev):

    -5.2218  -4.4233  -4.0381  -3.2212  -3.2163  -2.9685  -2.9632  -2.1936
    -1.0592  -0.6664  -0.6611   0.0795   0.0842   0.5589   1.0383   1.8318
     2.6070   2.6121   2.6817   2.6833   3.2356   3.3441   3.3484   3.6195
     3.8405   3.8802   3.8836   4.2825   4.4945   4.5192   4.5847   5.6636

     occupation numbers 
     1.0000   1.0000   1.0000   1.0000   1.0000   1.0000   1.0000   1.0000
     1.0000   1.0000   1.0000   1.0000   1.0000   1.0000   1.0000   1.0000
     1.0000   1.0000   1.0000   1.0000   1.0000   1.0000   1.0000   1.0000
     1.0000   1.0000   1.0000   1.0000   1.0000   1.0000   1.0000   1.0000

          k = 0.2121-0.2121 0.6364 (  3324 PWs)   bands (ev):

    -4.7305  -4.7239  -4.3156  -3.5638  -3.5589  -2.6984  -2.4823  -2.4772
    -0.7846  -0.7801  -0.5865   0.4098   0.4149   1.4563   1.7609   2.0251
     2.0272   2.0423   2.0760   2.5200   2.5233   3.1901   3.1929   3.5812
     3.7230   3.8762   3.8832   3.9926   4.0848   4.3382   4.4283   5.3471

     occupation numbers 
     1.0000   1.0000   1.0000   1.0000   1.0000   1.0000   1.0000   1.0000
     1.0000   1.0000   1.0000   1.0000   1.0000   1.0000   1.0000   1.0000
     1.0000   1.0000   1.0000   1.0000   1.0000   1.0000   1.0000   1.0000
     1.0000   1.0000   1.0000   1.0000   1.0000   1.0000   1.0000   1.0000

          k =-0.2121-0.9192 0.2121 (  3335 PWs)   bands (ev):

    -5.0553  -4.6556  -3.8328  -3.5192  -3.5191  -2.8137  -2.5323  -2.5322
    -0.7232  -0.7226  -0.6670   0.1294   0.1297   0.8034   1.5718   2.0866
     2.0878   2.1417   2.6991   2.8203   2.8224   3.1960   3.2995   3.3009
     3.8004   3.9658   3.9683   4.0532   4.0888   4.8201   4.9479   5.2824

     occupation numbers 
     1.0000   1.0000   1.0000   1.0000   1.0000   1.0000   1.0000   1.0000
     1.0000   1.0000   1.0000   1.0000   1.0000   1.0000   1.0000   1.0000
     1.0000   1.0000   1.0000   1.0000   1.0000   1.0000   1.0000   1.0000
     1.0000   1.0000   1.0000   1.0000   1.0000   1.0000   1.0000   1.0000

          k =-0.3536-0.7778 0.0707 (  3326 PWs)   bands (ev):

    -4.6481  -4.6410  -4.2393  -4.2387  -2.8404  -2.8339  -2.6110  -2.6055
    -0.6333  -0.6270  -0.3768  -0.3744   1.3714   1.3759   1.8244   1.8245
     1.9926   1.9988   2.0245   2.0299   3.2283   3.2316   3.4137   3.4194
     3.5515   3.5553   3.6007   3.6071   4.2914   4.2972   4.8578   4.8623

     occupation numbers 
     1.0000   1.0000   1.0000   1.0000   1.0000   1.0000   1.0000   1.0000
     1.0000   1.0000   1.0000   1.0000   1.0000   1.0000   1.0000   1.0000
     1.0000   1.0000   1.0000   1.0000   1.0000   1.0000   1.0000   1.0000
     1.0000   1.0000   1.0000   1.0000   1.0000   1.0000   1.0000   1.0000

          k = 0.3536-0.3536-0.3536 (  3354 PWs)   bands (ev):

    -4.9822  -4.9751  -3.1123  -3.1057  -3.1051  -3.1036  -3.1031  -3.0941
    -0.3066  -0.2969  -0.2959  -0.2934  -0.2933  -0.2922   2.1257   2.1310
     2.5356   2.5358   2.5371   2.5398   2.5423   2.5509   3.8178   3.8235
     3.8256   3.8291   3.8307   3.8312   5.2259   5.2357   5.2386   5.2387

     occupation numbers 
     1.0000   1.0000   1.0000   1.0000   1.0000   1.0000   1.0000   1.0000
     1.0000   1.0000   1.0000   1.0000   1.0000   1.0000   1.0000   1.0000
     1.0000   1.0000   1.0000   1.0000   1.0000   1.0000   1.0000   1.0000
     1.0000   1.0000   1.0000   1.0000   1.0000   1.0000   1.0000   1.0000

          k = 0.0707 0.0707-0.0707 (  3374 PWs)   bands (ev):

    -5.7284  -3.6144  -3.4778  -3.4730  -3.4704  -2.0733  -2.0697  -2.0665
    -1.3213  -1.3182  -1.3148  -0.8111  -0.8101  -0.8045  -0.6603   3.0663
     3.0696   3.0709   3.2224   3.2229   3.2253   4.5595   4.5678   4.5700
     4.7397   4.7410   4.7445   4.8206   4.8257   5.6195   5.9236   5.9296

     occupation numbers 
     1.0000   1.0000   1.0000   1.0000   1.0000   1.0000   1.0000   1.0000
     1.0000   1.0000   1.0000   1.0000   1.0000   1.0000   1.0000   1.0000
     1.0000   1.0000   1.0000   1.0000   1.0000   1.0000   1.0000   1.0000
     1.0000   1.0000   1.0000   1.0000   1.0000   1.0000   1.0000   1.0000

          k =-0.0707-0.0707-0.0707 (  3374 PWs)   bands (ev):

    -5.7285  -3.6162  -3.4772  -3.4730  -3.4689  -2.0745  -2.0696  -2.0648
    -1.3234  -1.3183  -1.3134  -0.8152  -0.8101  -0.8049  -0.6562   3.0681
     3.0701   3.0721   3.2200   3.2225   3.2250   4.5663   4.5691   4.5717
     4.7356   4.7391   4.7424   4.8180   4.8262   5.6247   5.9188   5.9289

     occupation numbers 
     1.0000   1.0000   1.0000   1.0000   1.0000   1.0000   1.0000   1.0000
     1.0000   1.0000   1.0000   1.0000   1.0000   1.0000   1.0000   1.0000
     1.0000   1.0000   1.0000   1.0000   1.0000   1.0000   1.0000   1.0000
     1.0000   1.0000   1.0000   1.0000   1.0000   1.0000   1.0000   1.0000

          k = 0.2121 0.2121 0.0707 (  3356 PWs)   bands (ev):

    -5.5580  -4.0164  -3.6956  -3.3062  -3.3008  -2.7186  -2.7138  -2.0354
    -1.2723  -0.7363  -0.7310  -0.5467  -0.5420  -0.3092   0.0526   2.3744
     2.8560   2.8578   3.2292   3.2331   3.3597   3.5979   3.6034   4.1696
     4.4378   4.4409   4.5020   4.5311   4.7485   4.7526   5.3658   5.8534

     occupation numbers 
     1.0000   1.0000   1.0000   1.0000   1.0000   1.0000   1.0000   1.0000
     1.0000   1.0000   1.0000   1.0000   1.0000   1.0000   1.0000   1.0000
     1.0000   1.0000   1.0000   1.0000   1.0000   1.0000   1.0000   1.0000
     1.0000   1.0000   1.0000   1.0000   1.0000   1.0000   1.0000   1.0000

          k =-0.2121-0.2121 0.0707 (  3356 PWs)   bands (ev):

    -5.5580  -4.0153  -3.6970  -3.3062  -3.3008  -2.7187  -2.7138  -2.0365
    -1.2707  -0.7362  -0.7308  -0.5465  -0.5418  -0.3051   0.0489   2.3739
     2.8536   2.8559   3.2320   3.2341   3.3597   3.5963   3.6028   4.1661
     4.4388   4.4422   4.4993   4.5320   4.7490   4.7546   5.3687   5.8532

     occupation numbers 
     1.0000   1.0000   1.0000   1.0000   1.0000   1.0000   1.0000   1.0000
     1.0000   1.0000   1.0000   1.0000   1.0000   1.0000   1.0000   1.0000
     1.0000   1.0000   1.0000   1.0000   1.0000   1.0000   1.0000   1.0000
     1.0000   1.0000   1.0000   1.0000   1.0000   1.0000   1.0000   1.0000

          k =-0.2121 0.2121 0.0707 (  3356 PWs)   bands (ev):

    -5.5581  -4.0173  -3.6969  -3.3042  -3.2988  -2.7178  -2.7129  -2.0376
    -1.2697  -0.7410  -0.7354  -0.5486  -0.5441  -0.3058   0.0560   2.3776
     2.8566   2.8588   3.2308   3.2329   3.3563   3.6024   3.6089   4.1726
     4.4347   4.4382   4.5077   4.5261   4.7450   4.7540   5.3663   5.8450

     occupation numbers 
     1.0000   1.0000   1.0000   1.0000   1.0000   1.0000   1.0000   1.0000
     1.0000   1.0000   1.0000   1.0000   1.0000   1.0000   1.0000   1.0000
     1.0000   1.0000   1.0000   1.0000   1.0000   1.0000   1.0000   1.0000
     1.0000   1.0000   1.0000   1.0000   1.0000   1.0000   1.0000   1.0000

          k = 0.2121-0.0707 0.2121 (  3356 PWs)   bands (ev):

    -5.5580  -4.0163  -3.6970  -3.3047  -3.3002  -2.7192  -2.7124  -2.0371
    -1.2702  -0.7405  -0.7312  -0.5494  -0.5410  -0.3054   0.0524   2.3758
     2.8546   2.8579   3.2306   3.2343   3.3581   3.6016   3.6036   4.1693
     4.4352   4.4415   4.5033   4.5294   4.7458   4.7556   5.3675   5.8491

     occupation numbers 
     1.0000   1.0000   1.0000   1.0000   1.0000   1.0000   1.0000   1.0000
     1.0000   1.0000   1.0000   1.0000   1.0000   1.0000   1.0000   1.0000
     1.0000   1.0000   1.0000   1.0000   1.0000   1.0000   1.0000   1.0000
     1.0000   1.0000   1.0000   1.0000   1.0000   1.0000   1.0000   1.0000

          k = 0.2121 0.0707-0.2121 (  3356 PWs)   bands (ev):

    -5.5580  -4.0152  -3.6984  -3.3026  -3.3025  -2.7158  -2.7158  -2.0382
    -1.2687  -0.7357  -0.7357  -0.5451  -0.5451  -0.3012   0.0487   2.3753
     2.8529   2.8552   3.2332   3.2356   3.3580   3.6009   3.6020   4.1657
     4.4388   4.4401   4.5012   4.5299   4.7465   4.7573   5.3706   5.8488

     occupation numbers 
     1.0000   1.0000   1.0000   1.0000   1.0000   1.0000   1.0000   1.0000
     1.0000   1.0000   1.0000   1.0000   1.0000   1.0000   1.0000   1.0000
     1.0000   1.0000   1.0000   1.0000   1.0000   1.0000   1.0000   1.0000
     1.0000   1.0000   1.0000   1.0000   1.0000   1.0000   1.0000   1.0000

          k =-0.2121 0.0707 0.2121 (  3356 PWs)   bands (ev):

    -5.5581  -4.0174  -3.6955  -3.3026  -3.3024  -2.7158  -2.7157  -2.0359
    -1.2718  -0.7359  -0.7359  -0.5456  -0.5454  -0.3095   0.0561   2.3763
     2.8573   2.8595   3.2293   3.2318   3.3579   3.6032   3.6043   4.1728
     4.4364   4.4382   4.5064   4.5281   4.7487   4.7500   5.3646   5.8492

     occupation numbers 
     1.0000   1.0000   1.0000   1.0000   1.0000   1.0000   1.0000   1.0000
     1.0000   1.0000   1.0000   1.0000   1.0000   1.0000   1.0000   1.0000
     1.0000   1.0000   1.0000   1.0000   1.0000   1.0000   1.0000   1.0000
     1.0000   1.0000   1.0000   1.0000   1.0000   1.0000   1.0000   1.0000

          k =-0.3536-0.3536-0.4950 (  3344 PWs)   bands (ev):

    -5.1402  -4.7380  -3.5926  -3.1807  -3.1757  -3.0261  -3.0210  -2.6021
    -0.7102  -0.5220  -0.5171  -0.0638  -0.0588   0.1194   1.5582   2.0768
     2.5625   2.5662   2.5757   2.5781   2.7162   3.1492   3.6007   3.6052
     3.6926   3.8982   3.9011   4.0302   4.9169   4.9397   5.0604   5.5114

     occupation numbers 
     1.0000   1.0000   1.0000   1.0000   1.0000   1.0000   1.0000   1.0000
     1.0000   1.0000   1.0000   1.0000   1.0000   1.0000   1.0000   1.0000
     1.0000   1.0000   1.0000   1.0000   1.0000   1.0000   1.0000   1.0000
     1.0000   1.0000   1.0000   1.0000   1.0000   1.0000   1.0000   1.0000

          k = 0.3536 0.3536-0.4950 (  3344 PWs)   bands (ev):

    -5.1400  -4.7375  -3.5937  -3.1808  -3.1758  -3.0262  -3.0211  -2.6038
    -0.7065  -0.5216  -0.5165  -0.0630  -0.0582   0.1234   1.5548   2.0745
     2.5593   2.5652   2.5727   2.5747   2.7136   3.1455   3.6044   3.6064
     3.6927   3.8997   3.9025   4.0307   4.9160   4.9430   5.0645   5.5107

     occupation numbers 
     1.0000   1.0000   1.0000   1.0000   1.0000   1.0000   1.0000   1.0000
     1.0000   1.0000   1.0000   1.0000   1.0000   1.0000   1.0000   1.0000
     1.0000   1.0000   1.0000   1.0000   1.0000   1.0000   1.0000   1.0000
     1.0000   1.0000   1.0000   1.0000   1.0000   1.0000   1.0000   1.0000

          k = 0.3536-0.3536-0.4950 (  3344 PWs)   bands (ev):

    -5.1405  -4.7383  -3.5934  -3.1794  -3.1745  -3.0246  -3.0194  -2.6042
    -0.7067  -0.5264  -0.5212  -0.0678  -0.0630   0.1217   1.5609   2.0793
     2.5663   2.5704   2.5773   2.5809   2.7205   3.1520   3.6032   3.6052
     3.6888   3.8966   3.8994   4.0261   4.9113   4.9416   5.0639   5.5042

     occupation numbers 
     1.0000   1.0000   1.0000   1.0000   1.0000   1.0000   1.0000   1.0000
     1.0000   1.0000   1.0000   1.0000   1.0000   1.0000   1.0000   1.0000
     1.0000   1.0000   1.0000   1.0000   1.0000   1.0000   1.0000   1.0000
     1.0000   1.0000   1.0000   1.0000   1.0000   1.0000   1.0000   1.0000

          k =-0.3536 0.4950-0.3536 (  3344 PWs)   bands (ev):

    -5.1402  -4.7380  -3.5936  -3.1808  -3.1744  -3.0254  -3.0201  -2.6040
    -0.7067  -0.5263  -0.5166  -0.0678  -0.0582   0.1226   1.5579   2.0769
     2.5639   2.5670   2.5745   2.5781   2.7168   3.1487   3.6033   3.6063
     3.6909   3.8969   3.9021   4.0284   4.9132   4.9428   5.0642   5.5075

     occupation numbers 
     1.0000   1.0000   1.0000   1.0000   1.0000   1.0000   1.0000   1.0000
     1.0000   1.0000   1.0000   1.0000   1.0000   1.0000   1.0000   1.0000
     1.0000   1.0000   1.0000   1.0000   1.0000   1.0000   1.0000   1.0000
     1.0000   1.0000   1.0000   1.0000   1.0000   1.0000   1.0000   1.0000

          k =-0.3536-0.4950 0.3536 (  3344 PWs)   bands (ev):

    -5.1401  -4.7375  -3.5946  -3.1780  -3.1776  -3.0229  -3.0226  -2.6057
    -0.7030  -0.5210  -0.5208  -0.0624  -0.0622   0.1268   1.5545   2.0747
     2.5605   2.5637   2.5739   2.5749   2.7140   3.1450   3.6058   3.6087
     3.6910   3.8999   3.9022   4.0288   4.9130   4.9452   5.0686   5.5066

     occupation numbers 
     1.0000   1.0000   1.0000   1.0000   1.0000   1.0000   1.0000   1.0000
     1.0000   1.0000   1.0000   1.0000   1.0000   1.0000   1.0000   1.0000
     1.0000   1.0000   1.0000   1.0000   1.0000   1.0000   1.0000   1.0000
     1.0000   1.0000   1.0000   1.0000   1.0000   1.0000   1.0000   1.0000

          k = 0.3536-0.4950-0.3536 (  3344 PWs)   bands (ev):

    -5.1404  -4.7384  -3.5924  -3.1779  -3.1775  -3.0228  -3.0224  -2.6023
    -0.7103  -0.5220  -0.5218  -0.0639  -0.0635   0.1185   1.5613   2.0793
     2.5663   2.5668   2.5787   2.5822   2.7197   3.1525   3.6007   3.6038
     3.6906   3.8971   3.8992   4.0279   4.9147   4.9386   5.0602   5.5081

     occupation numbers 
     1.0000   1.0000   1.0000   1.0000   1.0000   1.0000   1.0000   1.0000
     1.0000   1.0000   1.0000   1.0000   1.0000   1.0000   1.0000   1.0000
     1.0000   1.0000   1.0000   1.0000   1.0000   1.0000   1.0000   1.0000
     1.0000   1.0000   1.0000   1.0000   1.0000   1.0000   1.0000   1.0000

          k =-0.2121-0.2121-0.3536 (  3346 PWs)   bands (ev):

    -5.3056  -4.5074  -3.4475  -3.4423  -3.2834  -3.0463  -2.6114  -2.6065
    -0.6799  -0.6430  -0.6389  -0.2399  -0.2345   0.1245   1.0167   2.2402
     2.2421   2.7475   2.7826   3.1802   3.1830   3.3217   3.4270   3.4299
     3.5830   4.1361   4.1420   4.1694   4.6540   5.1516   5.2310   5.4454

     occupation numbers 
     1.0000   1.0000   1.0000   1.0000   1.0000   1.0000   1.0000   1.0000
     1.0000   1.0000   1.0000   1.0000   1.0000   1.0000   1.0000   1.0000
     1.0000   1.0000   1.0000   1.0000   1.0000   1.0000   1.0000   1.0000
     1.0000   1.0000   1.0000   1.0000   1.0000   1.0000   1.0000   1.0000

          k = 0.2121 0.2121-0.3536 (  3346 PWs)   bands (ev):

    -5.3055  -4.5069  -3.4475  -3.4424  -3.2841  -3.0483  -2.6116  -2.6066
    -0.6748  -0.6427  -0.6383  -0.2394  -0.2341   0.1273   1.0137   2.2374
     2.2404   2.7446   2.7799   3.1762   3.1801   3.3182   3.4288   3.4311
     3.5831   4.1411   4.1433   4.1700   4.6571   5.1503   5.2305   5.4505

     occupation numbers 
     1.0000   1.0000   1.0000   1.0000   1.0000   1.0000   1.0000   1.0000
     1.0000   1.0000   1.0000   1.0000   1.0000   1.0000   1.0000   1.0000
     1.0000   1.0000   1.0000   1.0000   1.0000   1.0000   1.0000   1.0000
     1.0000   1.0000   1.0000   1.0000   1.0000   1.0000   1.0000   1.0000

          k = 0.2121-0.2121-0.3536 (  3346 PWs)   bands (ev):

    -5.3058  -4.5080  -3.4459  -3.4408  -3.2838  -3.0486  -2.6104  -2.6054
    -0.6749  -0.6459  -0.6414  -0.2444  -0.2392   0.1253   1.0204   2.2419
     2.2449   2.7496   2.7858   3.1810   3.1847   3.3245   3.4265   3.4288
     3.5794   4.1400   4.1424   4.1651   4.6565   5.1450   5.2250   5.4491

     occupation numbers 
     1.0000   1.0000   1.0000   1.0000   1.0000   1.0000   1.0000   1.0000
     1.0000   1.0000   1.0000   1.0000   1.0000   1.0000   1.0000   1.0000
     1.0000   1.0000   1.0000   1.0000   1.0000   1.0000   1.0000   1.0000
     1.0000   1.0000   1.0000   1.0000   1.0000   1.0000   1.0000   1.0000

          k =-0.2121 0.3536-0.2121 (  3346 PWs)   bands (ev):

    -5.3056  -4.5075  -3.4470  -3.4412  -3.2839  -3.0485  -2.6116  -2.6054
    -0.6751  -0.6463  -0.6377  -0.2442  -0.2344   0.1263   1.0170   2.2393
     2.2430   2.7472   2.7828   3.1777   3.1833   3.3212   3.4265   3.4311
     3.5814   4.1406   4.1427   4.1675   4.6568   5.1480   5.2275   5.4499

     occupation numbers 
     1.0000   1.0000   1.0000   1.0000   1.0000   1.0000   1.0000   1.0000
     1.0000   1.0000   1.0000   1.0000   1.0000   1.0000   1.0000   1.0000
     1.0000   1.0000   1.0000   1.0000   1.0000   1.0000   1.0000   1.0000
     1.0000   1.0000   1.0000   1.0000   1.0000   1.0000   1.0000   1.0000

          k =-0.2121-0.3536 0.2121 (  3346 PWs)   bands (ev):

    -5.3055  -4.5069  -3.4442  -3.4441  -3.2848  -3.0504  -2.6086  -2.6086
    -0.6708  -0.6415  -0.6406  -0.2389  -0.2387   0.1291   1.0140   2.2379
     2.2398   2.7440   2.7803   3.1757   3.1786   3.3175   3.4292   3.4313
     3.5815   4.1429   4.1467   4.1680   4.6600   5.1469   5.2269   5.4549

     occupation numbers 
     1.0000   1.0000   1.0000   1.0000   1.0000   1.0000   1.0000   1.0000
     1.0000   1.0000   1.0000   1.0000   1.0000   1.0000   1.0000   1.0000
     1.0000   1.0000   1.0000   1.0000   1.0000   1.0000   1.0000   1.0000
     1.0000   1.0000   1.0000   1.0000   1.0000   1.0000   1.0000   1.0000

          k = 0.2121-0.3536-0.2121 (  3346 PWs)   bands (ev):

    -5.3058  -4.5080  -3.4441  -3.4440  -3.2833  -3.0464  -2.6084  -2.6083
    -0.6800  -0.6426  -0.6424  -0.2398  -0.2397   0.1235   1.0201   2.2425
     2.2443   2.7501   2.7855   3.1826   3.1854   3.3251   3.4262   3.4284
     3.5811   4.1367   4.1404   4.1670   4.6536   5.1490   5.2280   5.4447

     occupation numbers 
     1.0000   1.0000   1.0000   1.0000   1.0000   1.0000   1.0000   1.0000
     1.0000   1.0000   1.0000   1.0000   1.0000   1.0000   1.0000   1.0000
     1.0000   1.0000   1.0000   1.0000   1.0000   1.0000   1.0000   1.0000
     1.0000   1.0000   1.0000   1.0000   1.0000   1.0000   1.0000   1.0000

          k =-0.0707-0.0707-0.2121 (  3342 PWs)   bands (ev):

    -5.6430  -3.7821  -3.5348  -3.5296  -3.3859  -2.7664  -2.0394  -2.0347
    -1.3048  -1.3001  -0.7739  -0.6155  -0.6100  -0.5246  -0.3409   2.7634
     2.7657   3.1378   3.1409   3.1529   3.3010   3.9624   4.1708   4.1747
     4.5296   4.6460   4.6679   4.6759   4.8828   5.0815   5.6313   5.7479

     occupation numbers 
     1.0000   1.0000   1.0000   1.0000   1.0000   1.0000   1.0000   1.0000
     1.0000   1.0000   1.0000   1.0000   1.0000   1.0000   1.0000   1.0000
     1.0000   1.0000   1.0000   1.0000   1.0000   1.0000   1.0000   1.0000
     1.0000   1.0000   1.0000   1.0000   1.0000   1.0000   1.0000   1.0000

          k = 0.0707 0.0707-0.2121 (  3342 PWs)   bands (ev):

    -5.6430  -3.7807  -3.5349  -3.5296  -3.3880  -2.7666  -2.0396  -2.0348
    -1.3044  -1.2998  -0.7695  -0.6154  -0.6099  -0.5240  -0.3446   2.7613
     2.7642   3.1399   3.1420   3.1521   3.3011   3.9593   4.1683   4.1720
     4.5329   4.6469   4.6722   4.6770   4.8816   5.0766   5.6311   5.7538

     occupation numbers 
     1.0000   1.0000   1.0000   1.0000   1.0000   1.0000   1.0000   1.0000
     1.0000   1.0000   1.0000   1.0000   1.0000   1.0000   1.0000   1.0000
     1.0000   1.0000   1.0000   1.0000   1.0000   1.0000   1.0000   1.0000
     1.0000   1.0000   1.0000   1.0000   1.0000   1.0000   1.0000   1.0000

          k = 0.0707-0.0707-0.2121 (  3342 PWs)   bands (ev):

    -5.6430  -3.7836  -3.5329  -3.5277  -3.3881  -2.7664  -2.0390  -2.0342
    -1.3053  -1.3007  -0.7693  -0.6200  -0.6145  -0.5246  -0.3367   2.7635
     2.7664   3.1382   3.1402   3.1560   3.2977   3.9649   4.1693   4.1730
     4.5327   4.6405   4.6740   4.6787   4.8769   5.0841   5.6241   5.7524

     occupation numbers 
     1.0000   1.0000   1.0000   1.0000   1.0000   1.0000   1.0000   1.0000
     1.0000   1.0000   1.0000   1.0000   1.0000   1.0000   1.0000   1.0000
     1.0000   1.0000   1.0000   1.0000   1.0000   1.0000   1.0000   1.0000
     1.0000   1.0000   1.0000   1.0000   1.0000   1.0000   1.0000   1.0000

          k =-0.0707 0.2121-0.0707 (  3342 PWs)   bands (ev):

    -5.6430  -3.7822  -3.5338  -3.5287  -3.3880  -2.7666  -2.0404  -2.0335
    -1.3063  -1.2988  -0.7694  -0.6198  -0.6104  -0.5240  -0.3407   2.7616
     2.7661   3.1380   3.1421   3.1541   3.2995   3.9621   4.1671   4.1742
     4.5327   4.6439   4.6745   4.6764   4.8793   5.0803   5.6275   5.7532

     occupation numbers 
     1.0000   1.0000   1.0000   1.0000   1.0000   1.0000   1.0000   1.0000
     1.0000   1.0000   1.0000   1.0000   1.0000   1.0000   1.0000   1.0000
     1.0000   1.0000   1.0000   1.0000   1.0000   1.0000   1.0000   1.0000
     1.0000   1.0000   1.0000   1.0000   1.0000   1.0000   1.0000   1.0000

          k =-0.0707-0.2121 0.0707 (  3342 PWs)   bands (ev):

    -5.6430  -3.7808  -3.5314  -3.5312  -3.3900  -2.7669  -2.0372  -2.0371
    -1.3023  -1.3021  -0.7649  -0.6148  -0.6148  -0.5237  -0.3444   2.7610
     2.7630   3.1406   3.1423   3.1539   3.2994   3.9589   4.1668   4.1694
     4.5358   4.6448   4.6765   4.6801   4.8780   5.0753   5.6274   5.7592

     occupation numbers 
     1.0000   1.0000   1.0000   1.0000   1.0000   1.0000   1.0000   1.0000
     1.0000   1.0000   1.0000   1.0000   1.0000   1.0000   1.0000   1.0000
     1.0000   1.0000   1.0000   1.0000   1.0000   1.0000   1.0000   1.0000
     1.0000   1.0000   1.0000   1.0000   1.0000   1.0000   1.0000   1.0000

          k = 0.0707-0.2121-0.0707 (  3342 PWs)   bands (ev):

    -5.6430  -3.7835  -3.5314  -3.5312  -3.3860  -2.7663  -2.0368  -2.0367
    -1.3029  -1.3028  -0.7739  -0.6150  -0.6150  -0.5251  -0.3368   2.7647
     2.7666   3.1372   3.1397   3.1550   3.2994   3.9651   4.1719   4.1746
     4.5294   4.6428   4.6712   4.6745   4.8804   5.0853   5.6277   5.7471

     occupation numbers 
     1.0000   1.0000   1.0000   1.0000   1.0000   1.0000   1.0000   1.0000
     1.0000   1.0000   1.0000   1.0000   1.0000   1.0000   1.0000   1.0000
     1.0000   1.0000   1.0000   1.0000   1.0000   1.0000   1.0000   1.0000
     1.0000   1.0000   1.0000   1.0000   1.0000   1.0000   1.0000   1.0000

          k = 0.0707 0.3536-0.0707 (  3354 PWs)   bands (ev):

    -5.4725  -3.9332  -3.6162  -3.6161  -3.4025  -3.3676  -1.9809  -1.9807
    -1.2778  -1.2776  -0.5392  -0.2681  -0.2680   0.0866   0.3022   2.4375
     2.4391   2.9099   2.9116   3.2493   3.3202   3.4528   3.5410   3.5421
     3.9310   4.3931   4.5538   4.6253   4.6272   4.9082   5.2002   5.3089

     occupation numbers 
     1.0000   1.0000   1.0000   1.0000   1.0000   1.0000   1.0000   1.0000
     1.0000   1.0000   1.0000   1.0000   1.0000   1.0000   1.0000   1.0000
     1.0000   1.0000   1.0000   1.0000   1.0000   1.0000   1.0000   1.0000
     1.0000   1.0000   1.0000   1.0000   1.0000   1.0000   1.0000   1.0000

          k =-0.0707-0.3536-0.0707 (  3354 PWs)   bands (ev):

    -5.4725  -3.9341  -3.6190  -3.6132  -3.4021  -3.3662  -1.9838  -1.9772
    -1.2819  -1.2745  -0.5432  -0.2731  -0.2633   0.0899   0.3013   2.4377
     2.4423   2.9068   2.9118   3.2522   3.3212   3.4528   3.5391   3.5466
     3.9282   4.3972   4.5533   4.6230   4.6264   4.9092   5.2004   5.3038

     occupation numbers 
     1.0000   1.0000   1.0000   1.0000   1.0000   1.0000   1.0000   1.0000
     1.0000   1.0000   1.0000   1.0000   1.0000   1.0000   1.0000   1.0000
     1.0000   1.0000   1.0000   1.0000   1.0000   1.0000   1.0000   1.0000
     1.0000   1.0000   1.0000   1.0000   1.0000   1.0000   1.0000   1.0000

          k = 0.3536-0.0707-0.0707 (  3354 PWs)   bands (ev):

    -5.4725  -3.9352  -3.6178  -3.6127  -3.4024  -3.3661  -1.9826  -1.9778
    -1.2810  -1.2765  -0.5428  -0.2732  -0.2679   0.0937   0.3009   2.4399
     2.4425   2.9071   2.9097   3.2545   3.3234   3.4509   3.5409   3.5447
     3.9277   4.3999   4.5502   4.6234   4.6298   4.9066   5.1977   5.3035

     occupation numbers 
     1.0000   1.0000   1.0000   1.0000   1.0000   1.0000   1.0000   1.0000
     1.0000   1.0000   1.0000   1.0000   1.0000   1.0000   1.0000   1.0000
     1.0000   1.0000   1.0000   1.0000   1.0000   1.0000   1.0000   1.0000
     1.0000   1.0000   1.0000   1.0000   1.0000   1.0000   1.0000   1.0000

          k =-0.3536 0.0707-0.0707 (  3354 PWs)   bands (ev):

    -5.4725  -3.9340  -3.6195  -3.6144  -3.4020  -3.3643  -1.9830  -1.9782
    -1.2804  -1.2758  -0.5476  -0.2687  -0.2633   0.0895   0.3008   2.4394
     2.4417   2.9075   2.9102   3.2527   3.3200   3.4544   3.5423   3.5465
     3.9257   4.3988   4.5553   4.6173   4.6253   4.9127   5.2035   5.2989

     occupation numbers 
     1.0000   1.0000   1.0000   1.0000   1.0000   1.0000   1.0000   1.0000
     1.0000   1.0000   1.0000   1.0000   1.0000   1.0000   1.0000   1.0000
     1.0000   1.0000   1.0000   1.0000   1.0000   1.0000   1.0000   1.0000
     1.0000   1.0000   1.0000   1.0000   1.0000   1.0000   1.0000   1.0000

          k = 0.3536 0.0707 0.0707 (  3354 PWs)   bands (ev):

    -5.4725  -3.9343  -3.6179  -3.6127  -3.4022  -3.3680  -1.9828  -1.9780
    -1.2806  -1.2760  -0.5388  -0.2730  -0.2677   0.0903   0.3018   2.4383
     2.4406   2.9085   2.9112   3.2516   3.3224   3.4510   3.5393   3.5435
     3.9306   4.3958   4.5509   4.6240   4.6320   4.9057   5.1975   5.3087

     occupation numbers 
     1.0000   1.0000   1.0000   1.0000   1.0000   1.0000   1.0000   1.0000
     1.0000   1.0000   1.0000   1.0000   1.0000   1.0000   1.0000   1.0000
     1.0000   1.0000   1.0000   1.0000   1.0000   1.0000   1.0000   1.0000
     1.0000   1.0000   1.0000   1.0000   1.0000   1.0000   1.0000   1.0000

          k =-0.3536-0.0707 0.0707 (  3354 PWs)   bands (ev):

    -5.4725  -3.9330  -3.6195  -3.6144  -3.4025  -3.3656  -1.9833  -1.9785
    -1.2799  -1.2754  -0.5436  -0.2685  -0.2631   0.0862   0.3017   2.4376
     2.4402   2.9090   2.9115   3.2498   3.3190   3.4544   3.5411   3.5450
     3.9286   4.3945   4.5561   4.6198   4.6259   4.9116   5.2033   5.3040

     occupation numbers 
     1.0000   1.0000   1.0000   1.0000   1.0000   1.0000   1.0000   1.0000
     1.0000   1.0000   1.0000   1.0000   1.0000   1.0000   1.0000   1.0000
     1.0000   1.0000   1.0000   1.0000   1.0000   1.0000   1.0000   1.0000
     1.0000   1.0000   1.0000   1.0000   1.0000   1.0000   1.0000   1.0000

          k =-0.4950-0.2121-0.6364 (  3344 PWs)   bands (ev):

    -5.1359  -4.3422  -3.9601  -3.8997  -3.2935  -3.0466  -2.4913  -2.1051
    -1.1004  -0.6843  -0.4824  -0.2046   0.5709   1.0025   1.0509   1.8946
     2.2207   2.3215   2.5614   2.9118   3.1726   3.1779   3.2380   3.3030
     3.6588   3.7070   4.0792   4.1451   4.4695   4.4766   4.9739   5.1201

     occupation numbers 
     1.0000   1.0000   1.0000   1.0000   1.0000   1.0000   1.0000   1.0000
     1.0000   1.0000   1.0000   1.0000   1.0000   1.0000   1.0000   1.0000
     1.0000   1.0000   1.0000   1.0000   1.0000   1.0000   1.0000   1.0000
     1.0000   1.0000   1.0000   1.0000   1.0000   1.0000   1.0000   1.0000

          k = 0.4950 0.2121-0.6364 (  3344 PWs)   bands (ev):

    -5.1359  -4.3418  -3.9605  -3.9000  -3.2925  -3.0479  -2.4906  -2.1067
    -1.0980  -0.6854  -0.4789  -0.2075   0.5741   1.0035   1.0484   1.8941
     2.2190   2.3197   2.5622   2.9139   3.1705   3.1773   3.2340   3.3006
     3.6621   3.7081   4.0804   4.1446   4.4720   4.4785   4.9727   5.1200

     occupation numbers 
     1.0000   1.0000   1.0000   1.0000   1.0000   1.0000   1.0000   1.0000
     1.0000   1.0000   1.0000   1.0000   1.0000   1.0000   1.0000   1.0000
     1.0000   1.0000   1.0000   1.0000   1.0000   1.0000   1.0000   1.0000
     1.0000   1.0000   1.0000   1.0000   1.0000   1.0000   1.0000   1.0000

          k =-0.2121 0.4950-0.6364 (  3344 PWs)   bands (ev):

    -5.1361  -4.3420  -3.9613  -3.8994  -3.2930  -3.0447  -2.4890  -2.1101
    -1.0935  -0.6887  -0.4868  -0.2068   0.5771   0.9995   1.0497   1.8963
     2.2189   2.3231   2.5659   2.9162   3.1741   3.1767   3.2356   3.3019
     3.6583   3.7112   4.0757   4.1460   4.4691   4.4758   4.9764   5.1132

     occupation numbers 
     1.0000   1.0000   1.0000   1.0000   1.0000   1.0000   1.0000   1.0000
     1.0000   1.0000   1.0000   1.0000   1.0000   1.0000   1.0000   1.0000
     1.0000   1.0000   1.0000   1.0000   1.0000   1.0000   1.0000   1.0000
     1.0000   1.0000   1.0000   1.0000   1.0000   1.0000   1.0000   1.0000

          k = 0.2121-0.4950-0.6364 (  3344 PWs)   bands (ev):

    -5.1362  -4.3428  -3.9604  -3.8993  -3.2911  -3.0472  -2.4886  -2.1092
    -1.0950  -0.6897  -0.4815  -0.2120   0.5724   0.9999   1.0541   1.8973
     2.2206   2.3243   2.5652   2.9150   3.1734   3.1778   3.2352   3.3041
     3.6593   3.7089   4.0803   4.1415   4.4697   4.4794   4.9701   5.1135

     occupation numbers 
     1.0000   1.0000   1.0000   1.0000   1.0000   1.0000   1.0000   1.0000
     1.0000   1.0000   1.0000   1.0000   1.0000   1.0000   1.0000   1.0000
     1.0000   1.0000   1.0000   1.0000   1.0000   1.0000   1.0000   1.0000
     1.0000   1.0000   1.0000   1.0000   1.0000   1.0000   1.0000   1.0000

          k =-0.2121-0.4950 0.6364 (  3344 PWs)   bands (ev):

    -5.1359  -4.3416  -3.9610  -3.8997  -3.2940  -3.0460  -2.4912  -2.1064
    -1.0985  -0.6843  -0.4834  -0.2034   0.5749   1.0030   1.0473   1.8938
     2.2191   2.3200   2.5621   2.9135   3.1710   3.1778   3.2362   3.3007
     3.6600   3.7086   4.0774   4.1471   4.4708   4.4755   4.9763   5.1201

     occupation numbers 
     1.0000   1.0000   1.0000   1.0000   1.0000   1.0000   1.0000   1.0000
     1.0000   1.0000   1.0000   1.0000   1.0000   1.0000   1.0000   1.0000
     1.0000   1.0000   1.0000   1.0000   1.0000   1.0000   1.0000   1.0000
     1.0000   1.0000   1.0000   1.0000   1.0000   1.0000   1.0000   1.0000

          k = 0.2121 0.4950 0.6364 (  3344 PWs)   bands (ev):

    -5.1359  -4.3425  -3.9597  -3.9000  -3.2920  -3.0484  -2.4908  -2.1054
    -1.1000  -0.6854  -0.4779  -0.2086   0.5702   1.0032   1.0519   1.8948
     2.2207   2.3212   2.5615   2.9124   3.1722   3.1774   3.2357   3.3028
     3.6609   3.7064   4.0820   4.1425   4.4694   4.4809   4.9703   5.1201

     occupation numbers 
     1.0000   1.0000   1.0000   1.0000   1.0000   1.0000   1.0000   1.0000
     1.0000   1.0000   1.0000   1.0000   1.0000   1.0000   1.0000   1.0000
     1.0000   1.0000   1.0000   1.0000   1.0000   1.0000   1.0000   1.0000
     1.0000   1.0000   1.0000   1.0000   1.0000   1.0000   1.0000   1.0000

          k = 0.6364-0.2121-0.4950 (  3344 PWs)   bands (ev):

    -5.1362  -4.3426  -3.9605  -3.8993  -3.2926  -3.0452  -2.4891  -2.1089
    -1.0954  -0.6886  -0.4859  -0.2080   0.5732   0.9988   1.0535   1.8970
     2.2205   2.3245   2.5652   2.9145   3.1740   3.1782   3.2375   3.3043
     3.6571   3.7095   4.0775   4.1440   4.4692   4.4756   4.9739   5.1133

     occupation numbers 
     1.0000   1.0000   1.0000   1.0000   1.0000   1.0000   1.0000   1.0000
     1.0000   1.0000   1.0000   1.0000   1.0000   1.0000   1.0000   1.0000
     1.0000   1.0000   1.0000   1.0000   1.0000   1.0000   1.0000   1.0000
     1.0000   1.0000   1.0000   1.0000   1.0000   1.0000   1.0000   1.0000

          k =-0.4950 0.6364-0.2121 (  3344 PWs)   bands (ev):

    -5.1360  -4.3424  -3.9605  -3.8996  -3.2910  -3.0485  -2.4893  -2.1081
    -1.0963  -0.6882  -0.4780  -0.2117   0.5728   1.0021   1.0516   1.8958
     2.2198   2.3218   2.5637   2.9147   3.1736   3.1756   3.2334   3.3022
     3.6618   3.7082   4.0817   4.1417   4.4709   4.4811   4.9695   5.1168

     occupation numbers 
     1.0000   1.0000   1.0000   1.0000   1.0000   1.0000   1.0000   1.0000
     1.0000   1.0000   1.0000   1.0000   1.0000   1.0000   1.0000   1.0000
     1.0000   1.0000   1.0000   1.0000   1.0000   1.0000   1.0000   1.0000
     1.0000   1.0000   1.0000   1.0000   1.0000   1.0000   1.0000   1.0000

          k =-0.4950-0.6364 0.2121 (  3344 PWs)   bands (ev):

    -5.1360  -4.3416  -3.9613  -3.8998  -3.2929  -3.0461  -2.4898  -2.1090
    -1.0948  -0.6870  -0.4834  -0.2066   0.5775   1.0019   1.0470   1.8949
     2.2180   2.3208   2.5644   2.9159   3.1725   3.1758   3.2340   3.3001
     3.6608   3.7105   4.0772   4.1464   4.4712   4.4765   4.9758   5.1165

     occupation numbers 
     1.0000   1.0000   1.0000   1.0000   1.0000   1.0000   1.0000   1.0000
     1.0000   1.0000   1.0000   1.0000   1.0000   1.0000   1.0000   1.0000
     1.0000   1.0000   1.0000   1.0000   1.0000   1.0000   1.0000   1.0000
     1.0000   1.0000   1.0000   1.0000   1.0000   1.0000   1.0000   1.0000

          k = 0.4950 0.6364 0.2121 (  3344 PWs)   bands (ev):

    -5.1360  -4.3420  -3.9610  -3.8993  -3.2939  -3.0447  -2.4904  -2.1075
    -1.0972  -0.6860  -0.4868  -0.2037   0.5744   1.0005   1.0500   1.8953
     2.2198   2.3224   2.5637   2.9138   3.1748   3.1765   3.2379   3.3025
     3.6576   3.7093   4.0759   4.1467   4.4689   4.4746   4.9770   5.1167

     occupation numbers 
     1.0000   1.0000   1.0000   1.0000   1.0000   1.0000   1.0000   1.0000
     1.0000   1.0000   1.0000   1.0000   1.0000   1.0000   1.0000   1.0000
     1.0000   1.0000   1.0000   1.0000   1.0000   1.0000   1.0000   1.0000
     1.0000   1.0000   1.0000   1.0000   1.0000   1.0000   1.0000   1.0000

          k = 0.4950-0.6364-0.2121 (  3344 PWs)   bands (ev):

    -5.1361  -4.3428  -3.9597  -3.8997  -3.2920  -3.0472  -2.4900  -2.1065
    -1.0987  -0.6869  -0.4815  -0.2089   0.5697   1.0009   1.0544   1.8964
     2.2213   2.3237   2.5630   2.9127   3.1756   3.1760   3.2376   3.3048
     3.6584   3.7070   4.0807   4.1422   4.4684   4.4792   4.9709   5.1167

     occupation numbers 
     1.0000   1.0000   1.0000   1.0000   1.0000   1.0000   1.0000   1.0000
     1.0000   1.0000   1.0000   1.0000   1.0000   1.0000   1.0000   1.0000
     1.0000   1.0000   1.0000   1.0000   1.0000   1.0000   1.0000   1.0000
     1.0000   1.0000   1.0000   1.0000   1.0000   1.0000   1.0000   1.0000

          k =-0.3536-0.0707-0.4950 (  3340 PWs)   bands (ev):

    -4.9729  -4.5697  -4.1712  -3.7619  -3.0479  -2.8752  -2.7278  -2.3841
    -0.8658  -0.6814  -0.5154  -0.1247   0.7413   1.0237   1.5622   1.7500
     2.1323   2.2700   2.3255   2.6098   2.9191   3.3348   3.5520   3.5719
     3.6629   3.6666   3.7687   4.0344   4.0452   4.2649   4.7623   5.3731

     occupation numbers 
     1.0000   1.0000   1.0000   1.0000   1.0000   1.0000   1.0000   1.0000
     1.0000   1.0000   1.0000   1.0000   1.0000   1.0000   1.0000   1.0000
     1.0000   1.0000   1.0000   1.0000   1.0000   1.0000   1.0000   1.0000
     1.0000   1.0000   1.0000   1.0000   1.0000   1.0000   1.0000   1.0000

          k = 0.3536 0.0707-0.4950 (  3340 PWs)   bands (ev):

    -4.9728  -4.5693  -4.1717  -3.7622  -3.0476  -2.8736  -2.7297  -2.3850
    -0.8640  -0.6774  -0.5187  -0.1255   0.7427   1.0270   1.5589   1.7494
     2.1312   2.2697   2.3248   2.6080   2.9169   3.3360   3.5468   3.5743
     3.6616   3.6664   3.7700   4.0360   4.0500   4.2671   4.7607   5.3727

     occupation numbers 
     1.0000   1.0000   1.0000   1.0000   1.0000   1.0000   1.0000   1.0000
     1.0000   1.0000   1.0000   1.0000   1.0000   1.0000   1.0000   1.0000
     1.0000   1.0000   1.0000   1.0000   1.0000   1.0000   1.0000   1.0000
     1.0000   1.0000   1.0000   1.0000   1.0000   1.0000   1.0000   1.0000

          k =-0.0707 0.3536-0.4950 (  3340 PWs)   bands (ev):

    -4.9727  -4.5699  -4.1705  -3.7627  -3.0482  -2.8728  -2.7322  -2.3819
    -0.8695  -0.6724  -0.5205  -0.1239   0.7450   1.0200   1.5640   1.7499
     2.1313   2.2676   2.3270   2.6073   2.9185   3.3325   3.5497   3.5778
     3.6596   3.6674   3.7659   4.0352   4.0477   4.2712   4.7562   5.3767

     occupation numbers 
     1.0000   1.0000   1.0000   1.0000   1.0000   1.0000   1.0000   1.0000
     1.0000   1.0000   1.0000   1.0000   1.0000   1.0000   1.0000   1.0000
     1.0000   1.0000   1.0000   1.0000   1.0000   1.0000   1.0000   1.0000
     1.0000   1.0000   1.0000   1.0000   1.0000   1.0000   1.0000   1.0000

          k = 0.0707-0.3536-0.4950 (  3340 PWs)   bands (ev):

    -4.9731  -4.5701  -4.1709  -3.7617  -3.0465  -2.8715  -2.7307  -2.3856
    -0.8637  -0.6760  -0.5241  -0.1288   0.7402   1.0217   1.5659   1.7517
[...]

          k = 0.9192 0.2121-0.2121 (  3335 PWs)   bands (ev):

    -5.0551  -4.6552  -3.8330  -3.5223  -3.5173  -2.8131  -2.5355  -2.5305
    -0.7235  -0.7189  -0.6677   0.1297   0.1349   0.8046   1.5683   2.0840
     2.0860   2.1397   2.6962   2.8181   2.8216   3.1926   3.3000   3.3028
     3.8024   3.9626   3.9697   4.0554   4.0895   4.8225   4.9487   5.2855

     occupation numbers 
     1.0000   1.0000   1.0000   1.0000   1.0000   1.0000   1.0000   1.0000
     1.0000   1.0000   1.0000   1.0000   1.0000   1.0000   1.0000   1.0000
     1.0000   1.0000   1.0000   1.0000   1.0000   1.0000   1.0000   1.0000
     1.0000   1.0000   1.0000   1.0000   1.0000   1.0000   1.0000   1.0000

          k =-0.9192 0.2121 0.2121 (  3335 PWs)   bands (ev):

    -5.0550  -4.6554  -3.8338  -3.5210  -3.5160  -2.8176  -2.5344  -2.5294
    -0.7256  -0.7213  -0.6585   0.1253   0.1304   0.8089   1.5701   2.0851
     2.0872   2.1388   2.6943   2.8158   2.8193   3.1924   3.2998   3.3024
     3.7989   3.9689   3.9759   4.0514   4.0933   4.8168   4.9572   5.2779

     occupation numbers 
     1.0000   1.0000   1.0000   1.0000   1.0000   1.0000   1.0000   1.0000
     1.0000   1.0000   1.0000   1.0000   1.0000   1.0000   1.0000   1.0000
     1.0000   1.0000   1.0000   1.0000   1.0000   1.0000   1.0000   1.0000
     1.0000   1.0000   1.0000   1.0000   1.0000   1.0000   1.0000   1.0000

          k = 0.9192-0.2121 0.2121 (  3335 PWs)   bands (ev):

    -5.0549  -4.6548  -3.8336  -3.5224  -3.5174  -2.8148  -2.5356  -2.5306
    -0.7227  -0.7183  -0.6640   0.1302   0.1354   0.8080   1.5657   2.0815
     2.0849   2.1375   2.6923   2.8160   2.8186   3.1891   3.3010   3.3039
     3.8026   3.9661   3.9707   4.0558   4.0920   4.8219   4.9536   5.2847

     occupation numbers 
     1.0000   1.0000   1.0000   1.0000   1.0000   1.0000   1.0000   1.0000
     1.0000   1.0000   1.0000   1.0000   1.0000   1.0000   1.0000   1.0000
     1.0000   1.0000   1.0000   1.0000   1.0000   1.0000   1.0000   1.0000
     1.0000   1.0000   1.0000   1.0000   1.0000   1.0000   1.0000   1.0000

          k = 0.3536-0.7778-0.0707 (  3326 PWs)   bands (ev):

    -4.6477  -4.6406  -4.2398  -4.2391  -2.8412  -2.8347  -2.6105  -2.6051
    -0.6338  -0.6276  -0.3746  -0.3722   1.3753   1.3797   1.8224   1.8228
     1.9875   1.9940   2.0240   2.0292   3.2256   3.2290   3.4129   3.4182
     3.5534   3.5572   3.6033   3.6099   4.2899   4.2956   4.8604   4.8650

     occupation numbers 
     1.0000   1.0000   1.0000   1.0000   1.0000   1.0000   1.0000   1.0000
     1.0000   1.0000   1.0000   1.0000   1.0000   1.0000   1.0000   1.0000
     1.0000   1.0000   1.0000   1.0000   1.0000   1.0000   1.0000   1.0000
     1.0000   1.0000   1.0000   1.0000   1.0000   1.0000   1.0000   1.0000

          k =-0.3536 0.7778-0.0707 (  3326 PWs)   bands (ev):

    -4.6444  -4.6441  -4.2428  -4.2358  -2.8412  -2.8357  -2.6099  -2.6043
    -0.6344  -0.6301  -0.3762  -0.3681   1.3723   1.3795   1.8205   1.8259
     1.9907   1.9939   2.0255   2.0279   3.2280   3.2312   3.4125   3.4170
     3.5538   3.5574   3.6020   3.6073   4.2899   4.2939   4.8597   4.8669

     occupation numbers 
     1.0000   1.0000   1.0000   1.0000   1.0000   1.0000   1.0000   1.0000
     1.0000   1.0000   1.0000   1.0000   1.0000   1.0000   1.0000   1.0000
     1.0000   1.0000   1.0000   1.0000   1.0000   1.0000   1.0000   1.0000
     1.0000   1.0000   1.0000   1.0000   1.0000   1.0000   1.0000   1.0000

          k =-0.7778-0.3536-0.0707 (  3326 PWs)   bands (ev):

    -4.6482  -4.6410  -4.2426  -4.2352  -2.8378  -2.8344  -2.6116  -2.6070
    -0.6308  -0.6257  -0.3823  -0.3736   1.3713   1.3753   1.8220   1.8276
     1.9939   1.9989   2.0265   2.0286   3.2284   3.2297   3.4165   3.4191
     3.5506   3.5534   3.6039   3.6053   4.2922   4.2997   4.8533   4.8629

     occupation numbers 
     1.0000   1.0000   1.0000   1.0000   1.0000   1.0000   1.0000   1.0000
     1.0000   1.0000   1.0000   1.0000   1.0000   1.0000   1.0000   1.0000
     1.0000   1.0000   1.0000   1.0000   1.0000   1.0000   1.0000   1.0000
     1.0000   1.0000   1.0000   1.0000   1.0000   1.0000   1.0000   1.0000

          k = 0.7778 0.3536-0.0707 (  3326 PWs)   bands (ev):

    -4.6446  -4.6441  -4.2396  -4.2388  -2.8385  -2.8366  -2.6099  -2.6062
    -0.6341  -0.6268  -0.3765  -0.3724   1.3726   1.3786   1.8233   1.8236
     1.9911   1.9957   2.0257   2.0279   3.2284   3.2290   3.4136   3.4185
     3.5524   3.5560   3.6052   3.6054   4.2905   4.2965   4.8583   4.8645

     occupation numbers 
     1.0000   1.0000   1.0000   1.0000   1.0000   1.0000   1.0000   1.0000
     1.0000   1.0000   1.0000   1.0000   1.0000   1.0000   1.0000   1.0000
     1.0000   1.0000   1.0000   1.0000   1.0000   1.0000   1.0000   1.0000
     1.0000   1.0000   1.0000   1.0000   1.0000   1.0000   1.0000   1.0000

          k = 0.7778-0.3536 0.0707 (  3326 PWs)   bands (ev):

    -4.6477  -4.6404  -4.2432  -4.2358  -2.8407  -2.8371  -2.6091  -2.6046
    -0.6350  -0.6299  -0.3754  -0.3668   1.3759   1.3799   1.8194   1.8251
     1.9873   1.9926   2.0251   2.0275   3.2276   3.2289   3.4131   3.4157
     3.5553   3.5580   3.6052   3.6064   4.2875   4.2949   4.8598   4.8695

     occupation numbers 
     1.0000   1.0000   1.0000   1.0000   1.0000   1.0000   1.0000   1.0000
     1.0000   1.0000   1.0000   1.0000   1.0000   1.0000   1.0000   1.0000
     1.0000   1.0000   1.0000   1.0000   1.0000   1.0000   1.0000   1.0000
     1.0000   1.0000   1.0000   1.0000   1.0000   1.0000   1.0000   1.0000

          k = 0.0707-0.7778 0.3536 (  3326 PWs)   bands (ev):

    -4.6446  -4.6442  -4.2426  -4.2357  -2.8393  -2.8338  -2.6118  -2.6063
    -0.6307  -0.6264  -0.3809  -0.3728   1.3716   1.3788   1.8212   1.8266
     1.9928   1.9949   2.0254   2.0293   3.2261   3.2294   3.4151   3.4193
     3.5508   3.5550   3.6035   3.6087   4.2931   4.2972   4.8559   4.8630

     occupation numbers 
     1.0000   1.0000   1.0000   1.0000   1.0000   1.0000   1.0000   1.0000
     1.0000   1.0000   1.0000   1.0000   1.0000   1.0000   1.0000   1.0000
     1.0000   1.0000   1.0000   1.0000   1.0000   1.0000   1.0000   1.0000
     1.0000   1.0000   1.0000   1.0000   1.0000   1.0000   1.0000   1.0000

          k =-0.3536-0.3536 0.3536 (  3354 PWs)   bands (ev):

    -4.9816  -4.9745  -3.1151  -3.1059  -3.1054  -3.1038  -3.1033  -3.0969
    -0.2968  -0.2957  -0.2956  -0.2931  -0.2921  -0.2824   2.1192   2.1249
     2.5240   2.5320   2.5345   2.5373   2.5386   2.5388   3.8244   3.8250
     3.8266   3.8300   3.8323   3.8379   5.2337   5.2339   5.2369   5.2468

     occupation numbers 
     1.0000   1.0000   1.0000   1.0000   1.0000   1.0000   1.0000   1.0000
     1.0000   1.0000   1.0000   1.0000   1.0000   1.0000   1.0000   1.0000
     1.0000   1.0000   1.0000   1.0000   1.0000   1.0000   1.0000   1.0000
     1.0000   1.0000   1.0000   1.0000   1.0000   1.0000   1.0000   1.0000

          k = 0.3536 0.3536 0.3536 (  3354 PWs)   bands (ev):

    -4.9784  -4.9783  -3.1142  -3.1054  -3.1045  -3.1045  -3.1036  -3.0949
    -0.3064  -0.2969  -0.2945  -0.2945  -0.2921  -0.2826   2.1252   2.1254
     2.5310   2.5356   2.5372   2.5372   2.5388   2.5434   3.8226   3.8275
     3.8278   3.8279   3.8282   3.8330   5.2277   5.2360   5.2365   5.2450

     occupation numbers 
     1.0000   1.0000   1.0000   1.0000   1.0000   1.0000   1.0000   1.0000
     1.0000   1.0000   1.0000   1.0000   1.0000   1.0000   1.0000   1.0000
     1.0000   1.0000   1.0000   1.0000   1.0000   1.0000   1.0000   1.0000
     1.0000   1.0000   1.0000   1.0000   1.0000   1.0000   1.0000   1.0000

     highest occupied level (ev):     5.9296

!    total energy              =    -125.93014035 Ry
     estimated scf accuracy    <       0.00000004 Ry

     The total energy is the sum of the following terms:
     one-electron contribution =      36.73226044 Ry
     hartree contribution      =       8.92239570 Ry
     xc contribution           =     -38.29357907 Ry
     ewald contribution        =    -133.29121741 Ry

     convergence has been achieved in   7 iterations

     Forces acting on atoms (cartesian axes, Ry/au):

     atom    1 type  1   force =     0.00381222    0.00006692   -0.00381222
     atom    2 type  1   force =    -0.00026060    0.00001203    0.00026060
     atom    3 type  1   force =     0.00023338    0.00013058    0.00012812
     atom    4 type  1   force =    -0.00013207   -0.00012987   -0.00025862
     atom    5 type  1   force =    -0.00012812    0.00013058   -0.00023338
     atom    6 type  1   force =     0.00025862   -0.00012987    0.00013207
     atom    7 type  1   force =     0.00000043   -0.00001211   -0.00000043
     atom    8 type  1   force =    -0.00002343   -0.00000168    0.00002343
     atom    9 type  1   force =     0.00000479    0.00007755   -0.00000479
     atom   10 type  1   force =    -0.00000792   -0.00009073    0.00000792
     atom   11 type  1   force =     0.00008934    0.00000630   -0.00007580
     atom   12 type  1   force =    -0.00035743   -0.00000948    0.00037291
     atom   13 type  1   force =     0.00007580    0.00000630   -0.00008934
     atom   14 type  1   force =    -0.00037291   -0.00000948    0.00035743
     atom   15 type  1   force =    -0.00161257   -0.00125461    0.00161257
     atom   16 type  1   force =    -0.00157953    0.00120759    0.00157953
     The non-local contrib.  to forces
     atom    1 type  1   force =     0.00443196    0.00008854   -0.00443196
     atom    2 type  1   force =    -0.00013205    0.00002236    0.00013205
     atom    3 type  1   force =    -0.00032949    0.00002087    0.00011211
     atom    4 type  1   force =    -0.00010977   -0.00001892    0.00029129
     atom    5 type  1   force =    -0.00011211    0.00002087    0.00032949
     atom    6 type  1   force =    -0.00029129   -0.00001892    0.00010977
     atom    7 type  1   force =    -0.00009109   -0.00002094    0.00009109
     atom    8 type  1   force =     0.00006693   -0.00000098   -0.00006693
     atom    9 type  1   force =     0.00002037   -0.00013516   -0.00002037
     atom   10 type  1   force =     0.00000191    0.00011470   -0.00000191
     atom   11 type  1   force =    -0.00010499    0.00001051    0.00012524
     atom   12 type  1   force =     0.00051968   -0.00002054   -0.00047463
     atom   13 type  1   force =    -0.00012524    0.00001051    0.00010499
     atom   14 type  1   force =     0.00047463   -0.00002054   -0.00051968
     atom   15 type  1   force =    -0.00211687   -0.00262755    0.00211687
     atom   16 type  1   force =    -0.00208642    0.00257094    0.00208642
     The ionic contribution  to forces
     atom    1 type  1   force =     0.01283851    0.00017163   -0.01283851
     atom    2 type  1   force =    -0.00469621   -0.00000000    0.00469621
     atom    3 type  1   force =     0.00091518    0.00295468    0.00174139
     atom    4 type  1   force =    -0.00174139   -0.00295468   -0.00091518
     atom    5 type  1   force =    -0.00174139    0.00295468   -0.00091518
     atom    6 type  1   force =     0.00091518   -0.00295468    0.00174139
     atom    7 type  1   force =     0.00121327    0.00000000   -0.00121327
     atom    8 type  1   force =    -0.00085588    0.00000000    0.00085588
     atom    9 type  1   force =    -0.00016454   -0.00137841    0.00016454
     atom   10 type  1   force =    -0.00016857    0.00137887    0.00016857
     atom   11 type  1   force =    -0.00155126    0.00000829    0.00153918
     atom   12 type  1   force =     0.00420059   -0.00002906   -0.00414626
     atom   13 type  1   force =    -0.00153918    0.00000829    0.00155126
     atom   14 type  1   force =     0.00414626   -0.00002906   -0.00420059
     atom   15 type  1   force =    -0.00589434   -0.01012448    0.00589434
     atom   16 type  1   force =    -0.00587623    0.00999392    0.00587623
     The local contribution  to forces
     atom    1 type  1   force =    -0.01343665   -0.00019812    0.01343665
     atom    2 type  1   force =     0.00454273   -0.00001039   -0.00454273
     atom    3 type  1   force =    -0.00035272   -0.00281399   -0.00172576
     atom    4 type  1   force =     0.00173004    0.00281173    0.00036731
     atom    5 type  1   force =     0.00172576   -0.00281399    0.00035272
     atom    6 type  1   force =    -0.00036731    0.00281173   -0.00173004
     atom    7 type  1   force =    -0.00108363    0.00001013    0.00108363
     atom    8 type  1   force =     0.00072485    0.00000611   -0.00072485
     atom    9 type  1   force =     0.00015006    0.00156157   -0.00015006
     atom   10 type  1   force =     0.00016144   -0.00154518   -0.00016144
     atom   11 type  1   force =     0.00171007   -0.00001480   -0.00171259
     atom   12 type  1   force =    -0.00504796    0.00003496    0.00496668
     atom   13 type  1   force =     0.00171259   -0.00001480   -0.00171007
     atom   14 type  1   force =    -0.00496668    0.00003496    0.00504796
     atom   15 type  1   force =     0.00640506    0.01147471   -0.00640506
     atom   16 type  1   force =     0.00638143   -0.01132988   -0.00638143
     The core correction contribution to forces
     atom    1 type  1   force =     0.00000000    0.00000000    0.00000000
     atom    2 type  1   force =     0.00000000    0.00000000    0.00000000
     atom    3 type  1   force =     0.00000000    0.00000000    0.00000000
     atom    4 type  1   force =     0.00000000    0.00000000    0.00000000
     atom    5 type  1   force =     0.00000000    0.00000000    0.00000000
     atom    6 type  1   force =     0.00000000    0.00000000    0.00000000
     atom    7 type  1   force =     0.00000000    0.00000000    0.00000000
     atom    8 type  1   force =     0.00000000    0.00000000    0.00000000
     atom    9 type  1   force =     0.00000000    0.00000000    0.00000000
     atom   10 type  1   force =     0.00000000    0.00000000    0.00000000
     atom   11 type  1   force =     0.00000000    0.00000000    0.00000000
     atom   12 type  1   force =     0.00000000    0.00000000    0.00000000
     atom   13 type  1   force =     0.00000000    0.00000000    0.00000000
     atom   14 type  1   force =     0.00000000    0.00000000    0.00000000
     atom   15 type  1   force =     0.00000000    0.00000000    0.00000000
     atom   16 type  1   force =     0.00000000    0.00000000    0.00000000
     The Hubbard contrib.    to forces
     atom    1 type  1   force =     0.00000000    0.00000000    0.00000000
     atom    2 type  1   force =     0.00000000    0.00000000    0.00000000
     atom    3 type  1   force =     0.00000000    0.00000000    0.00000000
     atom    4 type  1   force =     0.00000000    0.00000000    0.00000000
     atom    5 type  1   force =     0.00000000    0.00000000    0.00000000
     atom    6 type  1   force =     0.00000000    0.00000000    0.00000000
     atom    7 type  1   force =     0.00000000    0.00000000    0.00000000
     atom    8 type  1   force =     0.00000000    0.00000000    0.00000000
     atom    9 type  1   force =     0.00000000    0.00000000    0.00000000
     atom   10 type  1   force =     0.00000000    0.00000000    0.00000000
     atom   11 type  1   force =     0.00000000    0.00000000    0.00000000
     atom   12 type  1   force =     0.00000000    0.00000000    0.00000000
     atom   13 type  1   force =     0.00000000    0.00000000    0.00000000
     atom   14 type  1   force =     0.00000000    0.00000000    0.00000000
     atom   15 type  1   force =     0.00000000    0.00000000    0.00000000
     atom   16 type  1   force =     0.00000000    0.00000000    0.00000000
     The SCF correction term to forces
     atom    1 type  1   force =    -0.00002122    0.00000489    0.00002122
     atom    2 type  1   force =     0.00002532    0.00000010   -0.00002532
     atom    3 type  1   force =     0.00000079   -0.00003095   -0.00000001
     atom    4 type  1   force =    -0.00001057    0.00003204   -0.00000241
     atom    5 type  1   force =     0.00000001   -0.00003095   -0.00000079
     atom    6 type  1   force =     0.00000241    0.00003204    0.00001057
     atom    7 type  1   force =    -0.00003774   -0.00000126    0.00003774
     atom    8 type  1   force =     0.00004106   -0.00000678   -0.00004106
     atom    9 type  1   force =    -0.00000072    0.00002959    0.00000072
     atom   10 type  1   force =    -0.00000232   -0.00003909    0.00000232
     atom   11 type  1   force =     0.00003591    0.00000233   -0.00002801
     atom   12 type  1   force =    -0.00002935    0.00000520    0.00002673
     atom   13 type  1   force =     0.00002801    0.00000233   -0.00003591
     atom   14 type  1   force =    -0.00002673    0.00000520    0.00002935
     atom   15 type  1   force =    -0.00000604    0.00002274    0.00000604
     atom   16 type  1   force =     0.00000207   -0.00002735   -0.00000207

     Total force =     0.006587     Total SCF correction =     0.000154

     Writing output data file /home/aritzleo/TOPICS/TEMP/Si_exc1.save/
 
     init_run     :      1.61s CPU      1.79s WALL (       1 calls)
     electrons    :     25.76s CPU     26.59s WALL (       1 calls)
     forces       :      0.16s CPU      0.16s WALL (       1 calls)

     Called by init_run:
     wfcinit      :      1.58s CPU      1.70s WALL (       1 calls)
     wfcinit:atom :      0.01s CPU      0.01s WALL (     141 calls)
     wfcinit:wfcr :      1.52s CPU      1.63s WALL (     141 calls)
     potinit      :      0.01s CPU      0.02s WALL (       1 calls)
     hinit0       :      0.01s CPU      0.04s WALL (       1 calls)

     Called by electrons:
     c_bands      :     23.83s CPU     24.54s WALL (       8 calls)
     sum_band     :      1.91s CPU      2.00s WALL (       8 calls)
     v_of_rho     :      0.02s CPU      0.03s WALL (       8 calls)
     v_h          :      0.00s CPU      0.00s WALL (       8 calls)
     v_xc         :      0.02s CPU      0.02s WALL (       8 calls)
     mix_rho      :      0.00s CPU      0.00s WALL (       8 calls)

     Called by c_bands:
     init_us_2    :      0.12s CPU      0.12s WALL (    2538 calls)
     cegterg      :     23.49s CPU     24.19s WALL (    1128 calls)

     Called by sum_band:
     sum_band:wei :      0.00s CPU      0.00s WALL (       8 calls)
     sum_band:loo :      1.90s CPU      2.00s WALL (       8 calls)
     sum_band:buf :      0.02s CPU      0.02s WALL (    1128 calls)
     sum_band:ini :      0.04s CPU      0.05s WALL (    1128 calls)

     Called by *egterg:
     cdiaghg      :      9.08s CPU      9.20s WALL (    4673 calls)
     cegterg:over :      1.19s CPU      1.23s WALL (    3686 calls)
     cegterg:upda :      0.52s CPU      0.53s WALL (    3686 calls)
     cegterg:last :      0.62s CPU      0.63s WALL (    2714 calls)
     cdiaghg:chol :      0.40s CPU      0.42s WALL (    4673 calls)
     cdiaghg:inve :      0.09s CPU      0.09s WALL (    4673 calls)
     cdiaghg:para :      0.74s CPU      0.75s WALL (    9346 calls)
     h_psi        :     13.12s CPU     13.75s WALL (    4955 calls)
     g_psi        :      0.05s CPU      0.05s WALL (    3686 calls)

     Called by h_psi:
     h_psi:calbec :      0.49s CPU      0.53s WALL (    4955 calls)
     vloc_psi     :     12.27s CPU     12.85s WALL (    4955 calls)
     add_vuspsi   :      0.29s CPU      0.31s WALL (    4955 calls)

     General routines
     calbec       :      0.54s CPU      0.57s WALL (    5519 calls)
     fft          :      0.01s CPU      0.04s WALL (      82 calls)
     ffts         :      0.00s CPU      0.00s WALL (       8 calls)
     fftw         :     12.89s CPU     13.49s WALL (  274852 calls)
 
     Parallel routines
 
     PWSCF        :     27.91s CPU     29.16s WALL

 
   This run was terminated on:   6:32:29  16Mar2022            

=------------------------------------------------------------------------------=
   JOB DONE.
=------------------------------------------------------------------------------=
