
     Program PWSCF v.7.0 starts on 14Mar2022 at 15:34:27 

     This program is part of the open-source Quantum ESPRESSO suite
     for quantum simulation of materials; please cite
         "P. Giannozzi et al., J. Phys.:Condens. Matter 21 395502 (2009);
         "P. Giannozzi et al., J. Phys.:Condens. Matter 29 465901 (2017);
         "P. Giannozzi et al., J. Chem. Phys. 152 154105 (2020);
          URL http://www.quantum-espresso.org", 
     in publications or presentations arising from this work. More details at
     http://www.quantum-espresso.org/quote

     Serial version
     26317 MiB available memory on the printing compute node when the environment starts

     Waiting for input...
     Reading input from standard input

     Current dimensions of program PWSCF are:
     Max number of different atomic species (ntypx) = 10
     Max number of k-points (npk) =  40000
     Max angular momentum in pseudopotentials (lmaxx) =  4

     G-vector sticks info
     --------------------
     sticks:   dense  smooth     PW     G-vecs:    dense   smooth      PW
     Sum         361     361    121                 4573     4573     941

     Using Slab Decomposition



     bravais-lattice index     =            2
     lattice parameter (alat)  =      10.2612  a.u.
     unit-cell volume          =     270.1071 (a.u.)^3
     number of atoms/cell      =            2
     number of atomic types    =            1
     number of electrons       =         8.00
     number of Kohn-Sham states=            4
     kinetic-energy cutoff     =      25.0000  Ry
     charge density cutoff     =     100.0000  Ry
     scf convergence threshold =      1.0E-07
     mixing beta               =       0.7000
     number of iterations used =            8  plain     mixing
     energy convergence thresh.=      1.0E-05
     force convergence thresh. =      1.0E-04
     press convergence thresh. =      5.0E-01
     Exchange-correlation=  SLA  PW   PBE  PBE
                           (   1   4   3   4   0   0   0)
     nstep                     =           50


     celldm(1)=  10.261212  celldm(2)=   0.000000  celldm(3)=   0.000000
     celldm(4)=   0.000000  celldm(5)=   0.000000  celldm(6)=   0.000000

     crystal axes: (cart. coord. in units of alat)
               a(1) = (  -0.500000   0.000000   0.500000 )  
               a(2) = (   0.000000   0.500000   0.500000 )  
               a(3) = (  -0.500000   0.500000   0.000000 )  

     reciprocal axes: (cart. coord. in units 2 pi/alat)
               b(1) = ( -1.000000 -1.000000  1.000000 )  
               b(2) = (  1.000000  1.000000  1.000000 )  
               b(3) = ( -1.000000  1.000000 -1.000000 )  


     PseudoPot. # 1 for Si read from file:
     /home/aritzleo/TOPICS/PSEUDO/Si.pbe-rrkj.UPF
     MD5 check sum: cf7ab5690cd9a85b22c4813f7e365554
     Pseudo is Norm-conserving, Zval =  4.0
     Generated by new atomic code, or converted to UPF format
     Using radial grid of  883 points,  3 beta functions with: 
                l(1) =   0
                l(2) =   0
                l(3) =   1

     atomic species   valence    mass     pseudopotential
        Si             4.00    28.08600     Si( 1.00)

     48 Sym. Ops., with inversion, found (24 have fractional translation)



   Cartesian axes

     site n.     atom                  positions (alat units)
         1           Si  tau(   1) = (   0.0000000   0.0000000   0.0000000  )
         2           Si  tau(   2) = (  -0.7500000   0.7500000   0.7500000  )

     number of k points=   110

     Number of k-points >= 100: set verbosity='high' to print them.

     Dense  grid:     4573 G-vectors     FFT dimensions: (  24,  24,  24)

     Estimated max dynamical RAM per process >       7.22 MB

     Initial potential from superposition of free atoms

     starting charge       7.9989, renormalised to       8.0000
     Starting wfcs are    8 randomized atomic wfcs

     total cpu time spent up to now is        0.8 secs

     Self-consistent Calculation

     iteration #  1     ecut=    25.00 Ry     beta= 0.70
     Davidson diagonalization with overlap
     ethr =  1.00E-02,  avg # of iterations =  2.0

     Threshold (ethr) on eigenvalues was too large:
     Diagonalizing with lowered threshold

     Davidson diagonalization with overlap
     ethr =  5.94E-04,  avg # of iterations =  1.9

     total cpu time spent up to now is        1.6 secs

     total energy              =     -15.73865498 Ry
     estimated scf accuracy    <       0.05564299 Ry

     iteration #  2     ecut=    25.00 Ry     beta= 0.70
     Davidson diagonalization with overlap
     ethr =  6.96E-04,  avg # of iterations =  1.0

     total cpu time spent up to now is        1.8 secs

     total energy              =     -15.74051417 Ry
     estimated scf accuracy    <       0.00311521 Ry

     iteration #  3     ecut=    25.00 Ry     beta= 0.70
     Davidson diagonalization with overlap
     ethr =  3.89E-05,  avg # of iterations =  2.1

     total cpu time spent up to now is        2.2 secs

     total energy              =     -15.74114929 Ry
     estimated scf accuracy    <       0.00009630 Ry

     iteration #  4     ecut=    25.00 Ry     beta= 0.70
     Davidson diagonalization with overlap
     ethr =  1.20E-06,  avg # of iterations =  4.7

     total cpu time spent up to now is        2.8 secs

     total energy              =     -15.74122348 Ry
     estimated scf accuracy    <       0.00000463 Ry

     iteration #  5     ecut=    25.00 Ry     beta= 0.70
     Davidson diagonalization with overlap
     ethr =  5.78E-08,  avg # of iterations =  4.2

     total cpu time spent up to now is        3.3 secs

     total energy              =     -15.74122670 Ry
     estimated scf accuracy    <       0.00000023 Ry

     iteration #  6     ecut=    25.00 Ry     beta= 0.70
     Davidson diagonalization with overlap
     ethr =  2.88E-09,  avg # of iterations =  3.3

     total cpu time spent up to now is        3.7 secs

     End of self-consistent calculation

     Number of k-points >= 100: set verbosity='high' to print the bands.

     highest occupied level (ev):     6.1750

!    total energy              =     -15.74122678 Ry
     estimated scf accuracy    <       0.00000006 Ry

     The total energy is the sum of the following terms:
     one-electron contribution =       4.77642031 Ry
     hartree contribution      =       1.09421079 Ry
     xc contribution           =      -4.81291273 Ry
     ewald contribution        =     -16.79894516 Ry

     convergence has been achieved in   6 iterations

     Forces acting on atoms (cartesian axes, Ry/au):

     atom    1 type  1   force =     0.00000000    0.00000000    0.00000000
     atom    2 type  1   force =    -0.00000000    0.00000000   -0.00000000

     Total force =     0.000000     Total SCF correction =     0.000000


     Computing stress (Cartesian axis) and pressure

          total   stress  (Ry/bohr**3)                   (kbar)     P=       22.69
   0.00015426  -0.00000000   0.00000000           22.69       -0.00        0.00
  -0.00000000   0.00015426  -0.00000000           -0.00       22.69       -0.00
   0.00000000  -0.00000000   0.00015426            0.00       -0.00       22.69


     BFGS Geometry Optimization
     Energy error            =      0.0E+00 Ry
     Gradient error          =      2.1E-33 Ry/Bohr
     Cell gradient error     =      2.3E+01 kbar

     number of scf cycles    =   1
     number of bfgs steps    =   0

     enthalpy           new  =     -15.7412267785 Ry

     new trust radius        =       0.0126766562 bohr
     new conv_thr            =       0.0000001000 Ry

     new unit-cell volume =    273.24426 a.u.^3 (    40.49062 Ang^3 )
     density =      2.30364 g/cm^3

CELL_PARAMETERS (alat= 10.26121200)
  -0.501928309   0.000000000   0.501928309
  -0.000000000   0.501928309   0.501928309
  -0.501928309   0.501928309  -0.000000000

ATOMIC_POSITIONS (crystal)
Si            0.0000000000        0.0000000000        0.0000000000
Si            0.7500000000        0.7500000000        0.7500000000



     Writing config-only to output data dir /home/aritzleo/TOPICS/TEMP/Si_exc1.save/
     NEW-OLD atomic charge density approx. for the potential
     extrapolated charge    8.09184, renormalised to    8.00000

     total cpu time spent up to now is        4.2 secs

     Self-consistent Calculation

     iteration #  1     ecut=    25.00 Ry     beta= 0.70
     Davidson diagonalization with overlap
     ethr =  1.00E-06,  avg # of iterations =  3.4

     total cpu time spent up to now is        4.7 secs

     total energy              =     -15.74150569 Ry
     estimated scf accuracy    <       0.00004268 Ry

     iteration #  2     ecut=    25.00 Ry     beta= 0.70
     Davidson diagonalization with overlap
     ethr =  5.33E-07,  avg # of iterations =  3.2

     total cpu time spent up to now is        5.1 secs

     total energy              =     -15.74159469 Ry
     estimated scf accuracy    <       0.00003330 Ry

     iteration #  3     ecut=    25.00 Ry     beta= 0.70
     Davidson diagonalization with overlap
     ethr =  4.16E-07,  avg # of iterations =  1.0

     total cpu time spent up to now is        5.4 secs

     total energy              =     -15.74159051 Ry
     estimated scf accuracy    <       0.00001091 Ry

     iteration #  4     ecut=    25.00 Ry     beta= 0.70
     Davidson diagonalization with overlap
     ethr =  1.36E-07,  avg # of iterations =  2.0

     total cpu time spent up to now is        5.8 secs

     total energy              =     -15.74159196 Ry
     estimated scf accuracy    <       0.00000105 Ry

     iteration #  5     ecut=    25.00 Ry     beta= 0.70
     Davidson diagonalization with overlap
     ethr =  1.32E-08,  avg # of iterations =  1.1

     total cpu time spent up to now is        6.1 secs

     total energy              =     -15.74159191 Ry
     estimated scf accuracy    <       0.00000018 Ry

     iteration #  6     ecut=    25.00 Ry     beta= 0.70
     Davidson diagonalization with overlap
     ethr =  2.28E-09,  avg # of iterations =  2.9

     total cpu time spent up to now is        6.5 secs

     End of self-consistent calculation

     Number of k-points >= 100: set verbosity='high' to print the bands.

     highest occupied level (ev):     6.0558

!    total energy              =     -15.74159194 Ry
     estimated scf accuracy    <       0.00000008 Ry

     The total energy is the sum of the following terms:
     one-electron contribution =       4.68938904 Ry
     hartree contribution      =       1.10411630 Ry
     xc contribution           =      -4.80069034 Ry
     ewald contribution        =     -16.73440693 Ry

     convergence has been achieved in   6 iterations

     Forces acting on atoms (cartesian axes, Ry/au):

     atom    1 type  1   force =     0.00000000   -0.00000000    0.00000000
     atom    2 type  1   force =    -0.00000000   -0.00000000    0.00000000

     Total force =     0.000000     Total SCF correction =     0.000000


     Computing stress (Cartesian axis) and pressure

          total   stress  (Ry/bohr**3)                   (kbar)     P=       11.82
   0.00008035  -0.00000000  -0.00000000           11.82       -0.00       -0.00
  -0.00000000   0.00008035   0.00000000           -0.00       11.82        0.00
  -0.00000000   0.00000000   0.00008035           -0.00        0.00       11.82

     Energy error            =      3.7E-04 Ry
     Gradient error          =      4.1E-33 Ry/Bohr
     Cell gradient error     =      1.2E+01 kbar

     number of scf cycles    =   2
     number of bfgs steps    =   1

     enthalpy           old  =     -15.7412267785 Ry
     enthalpy           new  =     -15.7415919380 Ry

     CASE: enthalpy          _new < enthalpy          _old

     new trust radius        =       0.0139711849 bohr
     new conv_thr            =       0.0000000010 Ry

     new unit-cell volume =    276.72310 a.u.^3 (    41.00613 Ang^3 )
     density =      2.27468 g/cm^3

CELL_PARAMETERS (alat= 10.26121200)
  -0.504049450   0.000000000   0.504049450
  -0.000000000   0.504049450   0.504049450
  -0.504049450   0.504049450   0.000000000

ATOMIC_POSITIONS (crystal)
Si            0.0000000000       -0.0000000000       -0.0000000000
Si            0.7500000000        0.7500000000        0.7500000000



     Writing config-only to output data dir /home/aritzleo/TOPICS/TEMP/Si_exc1.save/
     NEW-OLD atomic charge density approx. for the potential
     extrapolated charge    8.10056, renormalised to    8.00000

     total cpu time spent up to now is        7.0 secs

     Self-consistent Calculation

     iteration #  1     ecut=    25.00 Ry     beta= 0.70
     Davidson diagonalization with overlap
     ethr =  1.00E-06,  avg # of iterations =  3.7

     total cpu time spent up to now is        7.4 secs

     total energy              =     -15.74162960 Ry
     estimated scf accuracy    <       0.00005201 Ry

     iteration #  2     ecut=    25.00 Ry     beta= 0.70
     Davidson diagonalization with overlap
     ethr =  6.50E-07,  avg # of iterations =  3.2

     total cpu time spent up to now is        7.9 secs

     total energy              =     -15.74173757 Ry
     estimated scf accuracy    <       0.00004056 Ry

     iteration #  3     ecut=    25.00 Ry     beta= 0.70
     Davidson diagonalization with overlap
     ethr =  5.07E-07,  avg # of iterations =  1.0

     total cpu time spent up to now is        8.2 secs

     total energy              =     -15.74173254 Ry
     estimated scf accuracy    <       0.00001326 Ry

     iteration #  4     ecut=    25.00 Ry     beta= 0.70
     Davidson diagonalization with overlap
     ethr =  1.66E-07,  avg # of iterations =  2.0

     total cpu time spent up to now is        8.6 secs

     total energy              =     -15.74173419 Ry
     estimated scf accuracy    <       0.00000147 Ry

     iteration #  5     ecut=    25.00 Ry     beta= 0.70
     Davidson diagonalization with overlap
     ethr =  1.84E-08,  avg # of iterations =  1.1

     total cpu time spent up to now is        8.9 secs

     total energy              =     -15.74173424 Ry
     estimated scf accuracy    <       0.00000004 Ry

     iteration #  6     ecut=    25.00 Ry     beta= 0.70
     Davidson diagonalization with overlap
     ethr =  5.49E-10,  avg # of iterations =  4.8

     total cpu time spent up to now is        9.4 secs

     total energy              =     -15.74173427 Ry
     estimated scf accuracy    <       0.00000003 Ry

     iteration #  7     ecut=    25.00 Ry     beta= 0.70
     Davidson diagonalization with overlap
     ethr =  4.29E-10,  avg # of iterations =  1.0

     total cpu time spent up to now is        9.7 secs

     total energy              =     -15.74173427 Ry
     estimated scf accuracy    <          5.0E-09 Ry

     iteration #  8     ecut=    25.00 Ry     beta= 0.70
     Davidson diagonalization with overlap
     ethr =  6.28E-11,  avg # of iterations =  1.5

     total cpu time spent up to now is       10.0 secs

     total energy              =     -15.74173427 Ry
     estimated scf accuracy    <          2.3E-09 Ry

     iteration #  9     ecut=    25.00 Ry     beta= 0.70
     Davidson diagonalization with overlap
     ethr =  2.84E-11,  avg # of iterations =  2.1

     total cpu time spent up to now is       10.3 secs

     End of self-consistent calculation

     Number of k-points >= 100: set verbosity='high' to print the bands.

     highest occupied level (ev):     5.9278

!    total energy              =     -15.74173427 Ry
     estimated scf accuracy    <          4.2E-10 Ry

     The total energy is the sum of the following terms:
     one-electron contribution =       4.59466597 Ry
     hartree contribution      =       1.11494337 Ry
     xc contribution           =      -4.78735839 Ry
     ewald contribution        =     -16.66398522 Ry

     convergence has been achieved in   9 iterations

     Forces acting on atoms (cartesian axes, Ry/au):

     atom    1 type  1   force =     0.00000000    0.00000000   -0.00000000
     atom    2 type  1   force =    -0.00000000   -0.00000000    0.00000000

     Total force =     0.000000     Total SCF correction =     0.000000


     Computing stress (Cartesian axis) and pressure

          total   stress  (Ry/bohr**3)                   (kbar)     P=        0.41
   0.00000281   0.00000000  -0.00000000            0.41        0.00       -0.00
  -0.00000000   0.00000281   0.00000000           -0.00        0.41        0.00
   0.00000000   0.00000000   0.00000281            0.00        0.00        0.41

     Energy error            =      1.4E-04 Ry
     Gradient error          =      4.1E-33 Ry/Bohr
     Cell gradient error     =      4.1E-01 kbar

     number of scf cycles    =   3
     number of bfgs steps    =   2

     enthalpy           old  =     -15.7415919380 Ry
     enthalpy           new  =     -15.7417342691 Ry

     CASE: enthalpy          _new < enthalpy          _old

     new trust radius        =       0.0005113343 bohr
     new conv_thr            =       0.0000000010 Ry

     new unit-cell volume =    276.85071 a.u.^3 (    41.02504 Ang^3 )
     density =      2.27363 g/cm^3

CELL_PARAMETERS (alat= 10.26121200)
  -0.504126918   0.000000000   0.504126918
  -0.000000000   0.504126918   0.504126918
  -0.504126918   0.504126918   0.000000000

ATOMIC_POSITIONS (crystal)
Si            0.0000000000       -0.0000000000       -0.0000000000
Si            0.7500000000        0.7500000000        0.7500000000



     Writing config-only to output data dir /home/aritzleo/TOPICS/TEMP/Si_exc1.save/
     NEW-OLD atomic charge density approx. for the potential
     extrapolated charge    8.00369, renormalised to    8.00000

     total cpu time spent up to now is       10.8 secs

     Self-consistent Calculation

     iteration #  1     ecut=    25.00 Ry     beta= 0.70
     Davidson diagonalization with overlap
     ethr =  1.00E-06,  avg # of iterations =  1.0

     Threshold (ethr) on eigenvalues was too large:
     Diagonalizing with lowered threshold

     Davidson diagonalization with overlap
     ethr =  8.88E-10,  avg # of iterations =  3.3

     total cpu time spent up to now is       11.5 secs

     total energy              =     -15.74173432 Ry
     estimated scf accuracy    <       0.00000007 Ry

     iteration #  2     ecut=    25.00 Ry     beta= 0.70
     Davidson diagonalization with overlap
     ethr =  8.86E-10,  avg # of iterations =  3.4

     total cpu time spent up to now is       12.0 secs

     total energy              =     -15.74173446 Ry
     estimated scf accuracy    <       0.00000006 Ry

     iteration #  3     ecut=    25.00 Ry     beta= 0.70
     Davidson diagonalization with overlap
     ethr =  6.99E-10,  avg # of iterations =  1.0

     total cpu time spent up to now is       12.3 secs

     total energy              =     -15.74173445 Ry
     estimated scf accuracy    <       0.00000002 Ry

     iteration #  4     ecut=    25.00 Ry     beta= 0.70
     Davidson diagonalization with overlap
     ethr =  2.28E-10,  avg # of iterations =  2.0

     total cpu time spent up to now is       12.6 secs

     total energy              =     -15.74173446 Ry
     estimated scf accuracy    <          2.5E-09 Ry

     iteration #  5     ecut=    25.00 Ry     beta= 0.70
     Davidson diagonalization with overlap
     ethr =  3.12E-11,  avg # of iterations =  1.0

     total cpu time spent up to now is       12.9 secs

     End of self-consistent calculation

     Number of k-points >= 100: set verbosity='high' to print the bands.

     highest occupied level (ev):     5.9231

!    total energy              =     -15.74173446 Ry
     estimated scf accuracy    <          2.0E-10 Ry

     The total energy is the sum of the following terms:
     one-electron contribution =       4.59122523 Ry
     hartree contribution      =       1.11533887 Ry
     xc contribution           =      -4.78687407 Ry
     ewald contribution        =     -16.66142449 Ry

     convergence has been achieved in   5 iterations

     Forces acting on atoms (cartesian axes, Ry/au):

     atom    1 type  1   force =     0.00000000    0.00000000    0.00000000
     atom    2 type  1   force =     0.00000000    0.00000000    0.00000000

     Total force =     0.000000     Total SCF correction =     0.000000


     Computing stress (Cartesian axis) and pressure

          total   stress  (Ry/bohr**3)                   (kbar)     P=        0.01
   0.00000007  -0.00000000  -0.00000000            0.01       -0.00       -0.00
  -0.00000000   0.00000007   0.00000000           -0.00        0.01        0.00
  -0.00000000   0.00000000   0.00000007           -0.00        0.00        0.01

     Energy error            =      1.9E-07 Ry
     Gradient error          =      0.0E+00 Ry/Bohr
     Cell gradient error     =      9.6E-03 kbar

     bfgs converged in   4 scf cycles and   3 bfgs steps
     (criteria: energy <  1.0E-05 Ry, force <  1.0E-04Ry/Bohr, cell <  5.0E-01kbar)

     End of BFGS Geometry Optimization

     Final enthalpy           =     -15.7417344569 Ry

     File /home/aritzleo/TOPICS/TEMP/Si_exc1.bfgs deleted, as requested
Begin final coordinates
     new unit-cell volume =    276.85071 a.u.^3 (    41.02504 Ang^3 )
     density =      2.27363 g/cm^3

CELL_PARAMETERS (alat= 10.26121200)
  -0.504126918   0.000000000   0.504126918
  -0.000000000   0.504126918   0.504126918
  -0.504126918   0.504126918   0.000000000

ATOMIC_POSITIONS (crystal)
Si            0.0000000000       -0.0000000000       -0.0000000000
Si            0.7500000000        0.7500000000        0.7500000000
End final coordinates



     Writing config-only to output data dir /home/aritzleo/TOPICS/TEMP/Si_exc1.save/

     Final scf calculation at the relaxed structure.
     The G-vectors are recalculated for the final unit cell
     Results may differ from those at the preceding step.

     G-vector sticks info
     --------------------
     sticks:   dense  smooth     PW     G-vecs:    dense   smooth      PW
     Sum         367     367    121                 4645     4645     941

     Using Slab Decomposition



     bravais-lattice index     =            2
     lattice parameter (alat)  =      10.2612  a.u.
     unit-cell volume          =     276.8507 (a.u.)^3
     number of atoms/cell      =            2
     number of atomic types    =            1
     number of electrons       =         8.00
     number of Kohn-Sham states=            4
     kinetic-energy cutoff     =      25.0000  Ry
     charge density cutoff     =     100.0000  Ry
     scf convergence threshold =      1.0E-09
     mixing beta               =       0.7000
     number of iterations used =            8  plain     mixing
     press convergence thresh. =      5.0E-01
     Exchange-correlation=  SLA  PW   PBE  PBE
                           (   1   4   3   4   0   0   0)

     celldm(1)=  10.261212  celldm(2)=   0.000000  celldm(3)=   0.000000
     celldm(4)=   0.000000  celldm(5)=   0.000000  celldm(6)=   0.000000

     crystal axes: (cart. coord. in units of alat)
               a(1) = (  -0.504127   0.000000   0.504127 )  
               a(2) = (  -0.000000   0.504127   0.504127 )  
               a(3) = (  -0.504127   0.504127   0.000000 )  

     reciprocal axes: (cart. coord. in units 2 pi/alat)
               b(1) = ( -0.991814 -0.991814  0.991814 )  
               b(2) = (  0.991814  0.991814  0.991814 )  
               b(3) = ( -0.991814  0.991814 -0.991814 )  


     PseudoPot. # 1 for Si read from file:
     /home/aritzleo/TOPICS/PSEUDO/Si.pbe-rrkj.UPF
     MD5 check sum: cf7ab5690cd9a85b22c4813f7e365554
     Pseudo is Norm-conserving, Zval =  4.0
     Generated by new atomic code, or converted to UPF format
     Using radial grid of  883 points,  3 beta functions with: 
                l(1) =   0
                l(2) =   0
                l(3) =   1

     atomic species   valence    mass     pseudopotential
        Si             4.00    28.08600     Si( 1.00)

     48 Sym. Ops., with inversion, found (24 have fractional translation)



   Cartesian axes

     site n.     atom                  positions (alat units)
         1           Si  tau(   1) = (   0.0000000  -0.0000000  -0.0000000  )
         2           Si  tau(   2) = (  -0.7561904   0.7561904   0.7561904  )

     number of k points=   110

     Number of k-points >= 100: set verbosity='high' to print them.

     Dense  grid:     4645 G-vectors     FFT dimensions: (  24,  24,  24)

     Estimated max dynamical RAM per process >       7.38 MB

     Initial potential from superposition of free atoms

     starting charge       7.9989, renormalised to       8.0000
     Starting wfcs are    8 randomized atomic wfcs

     total cpu time spent up to now is       13.8 secs

     Self-consistent Calculation

     iteration #  1     ecut=    25.00 Ry     beta= 0.70
     Davidson diagonalization with overlap
     ethr =  1.00E-06,  avg # of iterations =  9.9

     total cpu time spent up to now is       15.0 secs

     total energy              =     -15.73927036 Ry
     estimated scf accuracy    <       0.05675739 Ry

     iteration #  2     ecut=    25.00 Ry     beta= 0.70
     Davidson diagonalization with overlap
     ethr =  7.09E-04,  avg # of iterations =  1.0

     total cpu time spent up to now is       15.2 secs

     total energy              =     -15.74134518 Ry
     estimated scf accuracy    <       0.00262223 Ry

     iteration #  3     ecut=    25.00 Ry     beta= 0.70
     Davidson diagonalization with overlap
     ethr =  3.28E-05,  avg # of iterations =  2.0

     total cpu time spent up to now is       15.6 secs

     total energy              =     -15.74170287 Ry
     estimated scf accuracy    <       0.00003624 Ry

     iteration #  4     ecut=    25.00 Ry     beta= 0.70
     Davidson diagonalization with overlap
     ethr =  4.53E-07,  avg # of iterations =  5.1

     total cpu time spent up to now is       16.1 secs

     total energy              =     -15.74174668 Ry
     estimated scf accuracy    <       0.00000421 Ry

     iteration #  5     ecut=    25.00 Ry     beta= 0.70
     Davidson diagonalization with overlap
     ethr =  5.26E-08,  avg # of iterations =  2.5

     total cpu time spent up to now is       16.6 secs

     total energy              =     -15.74174745 Ry
     estimated scf accuracy    <       0.00000131 Ry

     iteration #  6     ecut=    25.00 Ry     beta= 0.70
     Davidson diagonalization with overlap
     ethr =  1.64E-08,  avg # of iterations =  2.5

     total cpu time spent up to now is       16.9 secs

     total energy              =     -15.74174766 Ry
     estimated scf accuracy    <       0.00000009 Ry

     iteration #  7     ecut=    25.00 Ry     beta= 0.70
     Davidson diagonalization with overlap
     ethr =  1.15E-09,  avg # of iterations =  3.0

     total cpu time spent up to now is       17.3 secs

     End of self-consistent calculation

     Number of k-points >= 100: set verbosity='high' to print the bands.

     highest occupied level (ev):     5.9230

!    total energy              =     -15.74174769 Ry
     estimated scf accuracy    <          3.3E-10 Ry

     The total energy is the sum of the following terms:
     one-electron contribution =       4.59120242 Ry
     hartree contribution      =       1.11535340 Ry
     xc contribution           =      -4.78687902 Ry
     ewald contribution        =     -16.66142448 Ry

     convergence has been achieved in   7 iterations

     Forces acting on atoms (cartesian axes, Ry/au):

     atom    1 type  1   force =    -0.00000000   -0.00000000   -0.00000000
     atom    2 type  1   force =    -0.00000000   -0.00000000    0.00000000

     Total force =     0.000000     Total SCF correction =     0.000000


     Computing stress (Cartesian axis) and pressure

          total   stress  (Ry/bohr**3)                   (kbar)     P=        0.05
   0.00000033  -0.00000000  -0.00000000            0.05       -0.00       -0.00
  -0.00000000   0.00000033   0.00000000           -0.00        0.05        0.00
  -0.00000000   0.00000000   0.00000033           -0.00        0.00        0.05


     Writing all to output data dir /home/aritzleo/TOPICS/TEMP/Si_exc1.save/

     init_run     :      3.54s CPU      1.30s WALL (       2 calls)
     electrons    :     19.88s CPU     14.27s WALL (       5 calls)
     update_pot   :      1.12s CPU      0.47s WALL (       3 calls)
     forces       :      0.39s CPU      0.34s WALL (       5 calls)
     stress       :      1.19s CPU      1.11s WALL (       5 calls)

     Called by init_run:
     wfcinit      :      2.77s CPU      0.86s WALL (       2 calls)
     potinit      :      0.10s CPU      0.10s WALL (       2 calls)
     hinit0       :      0.58s CPU      0.32s WALL (       2 calls)

     Called by electrons:
     c_bands      :     17.25s CPU     12.21s WALL (      35 calls)
     sum_band     :      2.38s CPU      1.87s WALL (      35 calls)
     v_of_rho     :      0.23s CPU      0.18s WALL (      38 calls)
     mix_rho      :      0.02s CPU      0.01s WALL (      35 calls)

     Called by c_bands:
     init_us_2    :      0.99s CPU      0.72s WALL (    9020 calls)
     init_us_2:cp :      0.97s CPU      0.71s WALL (    9020 calls)
     cegterg      :     16.52s CPU     11.68s WALL (    3850 calls)

     Called by *egterg:
     cdiaghg      :      0.46s CPU      0.30s WALL (   13304 calls)
     h_psi        :     16.64s CPU     10.92s WALL (   14074 calls)
     g_psi        :      0.11s CPU      0.08s WALL (   10004 calls)

     Called by h_psi:
     h_psi:calbec :      0.52s CPU      0.35s WALL (   14074 calls)
     vloc_psi     :     15.54s CPU     10.17s WALL (   14074 calls)
     add_vuspsi   :      0.46s CPU      0.32s WALL (   14074 calls)

     General routines
     calbec       :      0.57s CPU      0.41s WALL (   16824 calls)
     fft          :      0.19s CPU      0.18s WALL (     420 calls)
     ffts         :      0.01s CPU      0.01s WALL (      35 calls)
     fftw         :     15.22s CPU     10.17s WALL (  115030 calls)


     PWSCF        :     26.71s CPU     17.66s WALL


   This run was terminated on:  15:34:45  14Mar2022            

=------------------------------------------------------------------------------=
   JOB DONE.
=------------------------------------------------------------------------------=
