
     Program PWSCF v.6.6 starts on 27Feb2023 at 20:23:31 

     This program is part of the open-source Quantum ESPRESSO suite
     for quantum simulation of materials; please cite
         "P. Giannozzi et al., J. Phys.:Condens. Matter 21 395502 (2009);
         "P. Giannozzi et al., J. Phys.:Condens. Matter 29 465901 (2017);
          URL http://www.quantum-espresso.org", 
     in publications or presentations arising from this work. More details at
     http://www.quantum-espresso.org/quote

     Serial version
     Fft bands division:     nmany     =       1
     Waiting for input...
     Reading input from standard input

     Current dimensions of program PWSCF are:
     Max number of different atomic species (ntypx) = 10
     Max number of k-points (npk) =  40000
     Max angular momentum in pseudopotentials (lmaxx) =  3

     G-vector sticks info
     --------------------
     sticks:   dense  smooth     PW     G-vecs:    dense   smooth      PW
     Sum         301     301    109                 3479     3479     725



     bravais-lattice index     =            2
     lattice parameter (alat)  =      10.4000  a.u.
     unit-cell volume          =     281.2160 (a.u.)^3
     number of atoms/cell      =            2
     number of atomic types    =            1
     number of electrons       =         8.00
     number of Kohn-Sham states=            4
     kinetic-energy cutoff     =      20.0000  Ry
     charge density cutoff     =      80.0000  Ry
     convergence threshold     =      1.0E-06
     mixing beta               =       0.7000
     number of iterations used =            8  plain     mixing
     Exchange-correlation=  SLA  PW   PBE  PBE
                           (   1   4   3   4   0   0   0)

     celldm(1)=  10.400000  celldm(2)=   0.000000  celldm(3)=   0.000000
     celldm(4)=   0.000000  celldm(5)=   0.000000  celldm(6)=   0.000000

     crystal axes: (cart. coord. in units of alat)
               a(1) = (  -0.500000   0.000000   0.500000 )  
               a(2) = (   0.000000   0.500000   0.500000 )  
               a(3) = (  -0.500000   0.500000   0.000000 )  

     reciprocal axes: (cart. coord. in units 2 pi/alat)
               b(1) = ( -1.000000 -1.000000  1.000000 )  
               b(2) = (  1.000000  1.000000  1.000000 )  
               b(3) = ( -1.000000  1.000000 -1.000000 )  


     PseudoPot. # 1 for Si read from file:
     ../pseudo/Si.pbe-rrkj.UPF
     MD5 check sum: cf7ab5690cd9a85b22c4813f7e365554
     Pseudo is Norm-conserving, Zval =  4.0
     Generated by new atomic code, or converted to UPF format
     Using radial grid of  883 points,  3 beta functions with: 
                l(1) =   0
                l(2) =   0
                l(3) =   1

     atomic species   valence    mass     pseudopotential
        Si             4.00    28.08600     Si( 1.00)

     48 Sym. Ops., with inversion, found (24 have fractional translation)



   Cartesian axes

     site n.     atom                  positions (alat units)
         1           Si  tau(   1) = (   0.0000000   0.0000000   0.0000000  )
         2           Si  tau(   2) = (   0.2500000   0.2500000   0.2500000  )

     number of k points=    28
                       cart. coord. in units 2pi/alat
        k(    1) = (  -0.0833333   0.0833333   0.0833333), wk =   0.0185185
        k(    2) = (  -0.2500000   0.2500000  -0.0833333), wk =   0.0555556
        k(    3) = (  -0.4166667   0.4166667  -0.2500000), wk =   0.0555556
        k(    4) = (   0.4166667  -0.4166667   0.5833333), wk =   0.0555556
        k(    5) = (   0.2500000  -0.2500000   0.4166667), wk =   0.0555556
        k(    6) = (   0.0833333  -0.0833333   0.2500000), wk =   0.0555556
        k(    7) = (  -0.0833333   0.4166667   0.0833333), wk =   0.0555556
        k(    8) = (  -0.2500000   0.5833333  -0.0833333), wk =   0.1111111
        k(    9) = (   0.5833333  -0.2500000   0.7500000), wk =   0.1111111
        k(   10) = (   0.4166667  -0.0833333   0.5833333), wk =   0.1111111
        k(   11) = (   0.2500000   0.0833333   0.4166667), wk =   0.1111111
        k(   12) = (  -0.0833333   0.7500000   0.0833333), wk =   0.0555556
        k(   13) = (   0.7500000  -0.0833333   0.9166667), wk =   0.1111111
        k(   14) = (   0.5833333   0.0833333   0.7500000), wk =   0.1111111
        k(   15) = (   0.4166667   0.2500000   0.5833333), wk =   0.1111111
        k(   16) = (  -0.0833333  -0.9166667   0.0833333), wk =   0.0555556
        k(   17) = (  -0.2500000  -0.7500000  -0.0833333), wk =   0.1111111
        k(   18) = (  -0.0833333  -0.5833333   0.0833333), wk =   0.0555556
        k(   19) = (  -0.2500000   0.2500000   0.2500000), wk =   0.0185185
        k(   20) = (  -0.4166667   0.4166667   0.0833333), wk =   0.0555556
        k(   21) = (   0.4166667  -0.4166667   0.9166667), wk =   0.0555556
        k(   22) = (   0.2500000  -0.2500000   0.7500000), wk =   0.0555556
        k(   23) = (  -0.2500000   0.5833333   0.2500000), wk =   0.0555556
        k(   24) = (   0.5833333  -0.2500000   1.0833333), wk =   0.1111111
        k(   25) = (   0.4166667  -0.0833333   0.9166667), wk =   0.1111111
        k(   26) = (  -0.2500000  -1.0833333   0.2500000), wk =   0.0555556
        k(   27) = (  -0.4166667   0.4166667   0.4166667), wk =   0.0185185
        k(   28) = (   0.4166667  -0.4166667   1.2500000), wk =   0.0555556

     Dense  grid:     3479 G-vectors     FFT dimensions: (  24,  24,  24)

     Estimated max dynamical RAM per process >       3.44 MB

     Initial potential from superposition of free atoms

     starting charge    7.99889, renormalised to    8.00000
     Starting wfcs are    8 randomized atomic wfcs

     total cpu time spent up to now is        0.1 secs

     Self-consistent Calculation

     iteration #  1     ecut=    20.00 Ry     beta= 0.70
     Davidson diagonalization with overlap
     ethr =  1.00E-02,  avg # of iterations =  2.0

     Threshold (ethr) on eigenvalues was too large:
     Diagonalizing with lowered threshold

     Davidson diagonalization with overlap
     ethr =  5.48E-04,  avg # of iterations =  2.0

     total cpu time spent up to now is        0.3 secs

     total energy              =     -15.73885513 Ry
     estimated scf accuracy    <       0.05213947 Ry

     iteration #  2     ecut=    20.00 Ry     beta= 0.70
     Davidson diagonalization with overlap
     ethr =  6.52E-04,  avg # of iterations =  1.0

     total cpu time spent up to now is        0.4 secs

     total energy              =     -15.74047750 Ry
     estimated scf accuracy    <       0.00301443 Ry

     iteration #  3     ecut=    20.00 Ry     beta= 0.70
     Davidson diagonalization with overlap
     ethr =  3.77E-05,  avg # of iterations =  2.1

     total cpu time spent up to now is        0.5 secs

     total energy              =     -15.74101218 Ry
     estimated scf accuracy    <       0.00008135 Ry

     iteration #  4     ecut=    20.00 Ry     beta= 0.70
     Davidson diagonalization with overlap
     ethr =  1.02E-06,  avg # of iterations =  4.7

     total cpu time spent up to now is        0.7 secs

     total energy              =     -15.74108449 Ry
     estimated scf accuracy    <       0.00000230 Ry

     iteration #  5     ecut=    20.00 Ry     beta= 0.70
     Davidson diagonalization with overlap
     ethr =  2.87E-08,  avg # of iterations =  4.5

     total cpu time spent up to now is        0.8 secs

     End of self-consistent calculation

          k =-0.0833 0.0833 0.0833 (   423 PWs)   bands (ev):

    -5.7265   4.9743   5.6835   5.6835

          k =-0.2500 0.2500-0.0833 (   423 PWs)   bands (ev):

    -5.2649   2.9390   4.4948   5.4760

          k =-0.4167 0.4167-0.2500 (   421 PWs)   bands (ev):

    -4.2099   0.2633   4.0365   4.8593

          k = 0.4167-0.4167 0.5833 (   423 PWs)   bands (ev):

    -3.5409  -0.8384   4.0959   4.4930

          k = 0.2500-0.2500 0.4167 (   423 PWs)   bands (ev):

    -4.6069   1.0825   4.5555   4.5791

          k = 0.0833-0.0833 0.2500 (   424 PWs)   bands (ev):

    -5.4933   3.9218   5.0639   5.2347

          k =-0.0833 0.4167 0.0833 (   429 PWs)   bands (ev):

    -5.0312   2.7377   4.3386   4.3586

          k =-0.2500 0.5833-0.0833 (   425 PWs)   bands (ev):

    -4.1506   0.9482   3.0717   3.9832

          k = 0.5833-0.2500 0.7500 (   423 PWs)   bands (ev):

    -3.0780  -0.7338   2.4828   3.7659

          k = 0.4167-0.0833 0.5833 (   423 PWs)   bands (ev):

    -3.7706   0.2812   2.4517   4.2325

          k = 0.2500 0.0833 0.4167 (   424 PWs)   bands (ev):

    -4.8132   1.9348   3.7442   4.8726

          k =-0.0833 0.7500 0.0833 (   434 PWs)   bands (ev):

    -3.4609   0.1323   3.0385   3.3607

          k = 0.7500-0.0833 0.9167 (   426 PWs)   bands (ev):

    -2.3066  -1.1675   2.2340   2.9745

          k = 0.5833 0.0833 0.7500 (   424 PWs)   bands (ev):

    -2.6712  -0.8312   1.7666   3.5002

          k = 0.4167 0.2500 0.5833 (   428 PWs)   bands (ev):

    -3.6650  -0.3627   3.3469   4.3245

          k =-0.0833-0.9167 0.0833 (   431 PWs)   bands (ev):

    -2.3924  -1.1739   2.7784   3.1516

          k =-0.2500-0.7500-0.0833 (   424 PWs)   bands (ev):

    -3.2994  -0.0819   2.5398   3.3036

          k =-0.0833-0.5833 0.0833 (   430 PWs)   bands (ev):

    -4.3487   1.4613   3.5629   3.7707

          k =-0.2500 0.2500 0.2500 (   429 PWs)   bands (ev):

    -5.0429   1.9948   5.0888   5.0888

          k =-0.4167 0.4167 0.0833 (   422 PWs)   bands (ev):

    -4.3861   1.0719   3.0368   4.9225

          k = 0.4167-0.4167 0.9167 (   420 PWs)   bands (ev):

    -3.2493  -0.3346   1.9722   4.1661

          k = 0.2500-0.2500 0.7500 (   428 PWs)   bands (ev):

    -3.1976  -0.4120   2.4297   3.7016

          k =-0.2500 0.5833 0.2500 (   427 PWs)   bands (ev):

    -3.9767   0.2929   3.4731   4.0626

          k = 0.5833-0.2500 1.0833 (   418 PWs)   bands (ev):

    -3.0095  -0.4538   2.0701   3.3055

          k = 0.4167-0.0833 0.9167 (   423 PWs)   bands (ev):

    -2.2075  -1.1752   1.9187   2.6649

          k =-0.2500-1.0833 0.2500 (   426 PWs)   bands (ev):

    -2.4119  -1.0772   1.7967   3.5133

          k =-0.4167 0.4167 0.4167 (   422 PWs)   bands (ev):

    -3.8944  -0.4517   4.7093   4.7093

          k = 0.4167-0.4167 1.2500 (   424 PWs)   bands (ev):

    -3.3124  -0.7521   2.9376   4.2875

     highest occupied level (ev):     5.6835

!    total energy              =     -15.74108663 Ry
     estimated scf accuracy    <       0.00000016 Ry

     The total energy is the sum of the following terms:
     one-electron contribution =       4.47524583 Ry
     hartree contribution      =       1.12880166 Ry
     xc contribution           =      -4.77037090 Ry
     ewald contribution        =     -16.57476322 Ry

     convergence has been achieved in   5 iterations

     Writing output data file ./tmp/Si_exc1.save/

     init_run     :      0.84s CPU      0.10s WALL (       1 calls)
     electrons    :      8.01s CPU      0.70s WALL (       1 calls)

     Called by init_run:
     wfcinit      :      0.81s CPU      0.07s WALL (       1 calls)
     potinit      :      0.01s CPU      0.01s WALL (       1 calls)
     hinit0       :      0.02s CPU      0.02s WALL (       1 calls)

     Called by electrons:
     c_bands      :      6.97s CPU      0.59s WALL (       6 calls)
     sum_band     :      0.90s CPU      0.09s WALL (       6 calls)
     v_of_rho     :      0.12s CPU      0.03s WALL (       6 calls)
     mix_rho      :      0.00s CPU      0.00s WALL (       6 calls)

     Called by c_bands:
     init_us_2    :      0.19s CPU      0.02s WALL (     364 calls)
     cegterg      :      6.77s CPU      0.57s WALL (     168 calls)

     Called by *egterg:
     cdiaghg      :      0.34s CPU      0.04s WALL (     596 calls)
     h_psi        :      6.92s CPU      0.57s WALL (     652 calls)
     g_psi        :      0.01s CPU      0.00s WALL (     456 calls)

     Called by h_psi:
     h_psi:calbec :      0.14s CPU      0.01s WALL (     652 calls)
     vloc_psi     :      6.57s CPU      0.55s WALL (     652 calls)
     add_vuspsi   :      0.19s CPU      0.01s WALL (     652 calls)

     General routines
     calbec       :      0.11s CPU      0.01s WALL (     652 calls)
     fft          :      0.04s CPU      0.01s WALL (      60 calls)
     ffts         :      0.00s CPU      0.00s WALL (       6 calls)
     fftw         :      6.57s CPU      0.56s WALL (    5212 calls)


     PWSCF        :      8.86s CPU      0.82s WALL


   This run was terminated on:  20:23:31  27Feb2023            

=------------------------------------------------------------------------------=
   JOB DONE.
=------------------------------------------------------------------------------=
