
     Program PWSCF v.6.6 starts on 27Feb2023 at 20: 2:12 

     This program is part of the open-source Quantum ESPRESSO suite
     for quantum simulation of materials; please cite
         "P. Giannozzi et al., J. Phys.:Condens. Matter 21 395502 (2009);
         "P. Giannozzi et al., J. Phys.:Condens. Matter 29 465901 (2017);
          URL http://www.quantum-espresso.org", 
     in publications or presentations arising from this work. More details at
     http://www.quantum-espresso.org/quote

     Serial version
     Fft bands division:     nmany     =       1
     Waiting for input...
     Reading input from standard input

     Current dimensions of program PWSCF are:
     Max number of different atomic species (ntypx) = 10
     Max number of k-points (npk) =  40000
     Max angular momentum in pseudopotentials (lmaxx) =  3

     G-vector sticks info
     --------------------
     sticks:   dense  smooth     PW     G-vecs:    dense   smooth      PW
     Sum         283     283     97                 3143     3143     645



     bravais-lattice index     =            2
     lattice parameter (alat)  =      10.2000  a.u.
     unit-cell volume          =     265.3020 (a.u.)^3
     number of atoms/cell      =            2
     number of atomic types    =            1
     number of electrons       =         8.00
     number of Kohn-Sham states=            4
     kinetic-energy cutoff     =      20.0000  Ry
     charge density cutoff     =      80.0000  Ry
     convergence threshold     =      1.0E-06
     mixing beta               =       0.7000
     number of iterations used =            8  plain     mixing
     Exchange-correlation=  SLA  PW   PBE  PBE
                           (   1   4   3   4   0   0   0)

     celldm(1)=  10.200000  celldm(2)=   0.000000  celldm(3)=   0.000000
     celldm(4)=   0.000000  celldm(5)=   0.000000  celldm(6)=   0.000000

     crystal axes: (cart. coord. in units of alat)
               a(1) = (  -0.500000   0.000000   0.500000 )  
               a(2) = (   0.000000   0.500000   0.500000 )  
               a(3) = (  -0.500000   0.500000   0.000000 )  

     reciprocal axes: (cart. coord. in units 2 pi/alat)
               b(1) = ( -1.000000 -1.000000  1.000000 )  
               b(2) = (  1.000000  1.000000  1.000000 )  
               b(3) = ( -1.000000  1.000000 -1.000000 )  


     PseudoPot. # 1 for Si read from file:
     ../pseudo/Si.pbe-rrkj.UPF
     MD5 check sum: cf7ab5690cd9a85b22c4813f7e365554
     Pseudo is Norm-conserving, Zval =  4.0
     Generated by new atomic code, or converted to UPF format
     Using radial grid of  883 points,  3 beta functions with: 
                l(1) =   0
                l(2) =   0
                l(3) =   1

     atomic species   valence    mass     pseudopotential
        Si             4.00    28.08600     Si( 1.00)

     48 Sym. Ops., with inversion, found (24 have fractional translation)



   Cartesian axes

     site n.     atom                  positions (alat units)
         1           Si  tau(   1) = (   0.0000000   0.0000000   0.0000000  )
         2           Si  tau(   2) = (   0.2500000   0.2500000   0.2500000  )

     number of k points=    28
                       cart. coord. in units 2pi/alat
        k(    1) = (  -0.0833333   0.0833333   0.0833333), wk =   0.0185185
        k(    2) = (  -0.2500000   0.2500000  -0.0833333), wk =   0.0555556
        k(    3) = (  -0.4166667   0.4166667  -0.2500000), wk =   0.0555556
        k(    4) = (   0.4166667  -0.4166667   0.5833333), wk =   0.0555556
        k(    5) = (   0.2500000  -0.2500000   0.4166667), wk =   0.0555556
        k(    6) = (   0.0833333  -0.0833333   0.2500000), wk =   0.0555556
        k(    7) = (  -0.0833333   0.4166667   0.0833333), wk =   0.0555556
        k(    8) = (  -0.2500000   0.5833333  -0.0833333), wk =   0.1111111
        k(    9) = (   0.5833333  -0.2500000   0.7500000), wk =   0.1111111
        k(   10) = (   0.4166667  -0.0833333   0.5833333), wk =   0.1111111
        k(   11) = (   0.2500000   0.0833333   0.4166667), wk =   0.1111111
        k(   12) = (  -0.0833333   0.7500000   0.0833333), wk =   0.0555556
        k(   13) = (   0.7500000  -0.0833333   0.9166667), wk =   0.1111111
        k(   14) = (   0.5833333   0.0833333   0.7500000), wk =   0.1111111
        k(   15) = (   0.4166667   0.2500000   0.5833333), wk =   0.1111111
        k(   16) = (  -0.0833333  -0.9166667   0.0833333), wk =   0.0555556
        k(   17) = (  -0.2500000  -0.7500000  -0.0833333), wk =   0.1111111
        k(   18) = (  -0.0833333  -0.5833333   0.0833333), wk =   0.0555556
        k(   19) = (  -0.2500000   0.2500000   0.2500000), wk =   0.0185185
        k(   20) = (  -0.4166667   0.4166667   0.0833333), wk =   0.0555556
        k(   21) = (   0.4166667  -0.4166667   0.9166667), wk =   0.0555556
        k(   22) = (   0.2500000  -0.2500000   0.7500000), wk =   0.0555556
        k(   23) = (  -0.2500000   0.5833333   0.2500000), wk =   0.0555556
        k(   24) = (   0.5833333  -0.2500000   1.0833333), wk =   0.1111111
        k(   25) = (   0.4166667  -0.0833333   0.9166667), wk =   0.1111111
        k(   26) = (  -0.2500000  -1.0833333   0.2500000), wk =   0.0555556
        k(   27) = (  -0.4166667   0.4166667   0.4166667), wk =   0.0185185
        k(   28) = (   0.4166667  -0.4166667   1.2500000), wk =   0.0555556

     Dense  grid:     3143 G-vectors     FFT dimensions: (  24,  24,  24)

     Estimated max dynamical RAM per process >       3.25 MB

     Initial potential from superposition of free atoms

     starting charge    7.99889, renormalised to    8.00000
     Starting wfcs are    8 randomized atomic wfcs

     total cpu time spent up to now is        0.1 secs

     Self-consistent Calculation

     iteration #  1     ecut=    20.00 Ry     beta= 0.70
     Davidson diagonalization with overlap
     ethr =  1.00E-02,  avg # of iterations =  2.0

     Threshold (ethr) on eigenvalues was too large:
     Diagonalizing with lowered threshold

     Davidson diagonalization with overlap
     ethr =  6.12E-04,  avg # of iterations =  1.9

     total cpu time spent up to now is        0.3 secs

     total energy              =     -15.73693792 Ry
     estimated scf accuracy    <       0.05726636 Ry

     iteration #  2     ecut=    20.00 Ry     beta= 0.70
     Davidson diagonalization with overlap
     ethr =  7.16E-04,  avg # of iterations =  1.0

     total cpu time spent up to now is        0.4 secs

     total energy              =     -15.73893041 Ry
     estimated scf accuracy    <       0.00314604 Ry

     iteration #  3     ecut=    20.00 Ry     beta= 0.70
     Davidson diagonalization with overlap
     ethr =  3.93E-05,  avg # of iterations =  2.1

     total cpu time spent up to now is        0.5 secs

     total energy              =     -15.73961150 Ry
     estimated scf accuracy    <       0.00010169 Ry

     iteration #  4     ecut=    20.00 Ry     beta= 0.70
     Davidson diagonalization with overlap
     ethr =  1.27E-06,  avg # of iterations =  4.6

     total cpu time spent up to now is        0.6 secs

     total energy              =     -15.73968794 Ry
     estimated scf accuracy    <       0.00000502 Ry

     iteration #  5     ecut=    20.00 Ry     beta= 0.70
     Davidson diagonalization with overlap
     ethr =  6.27E-08,  avg # of iterations =  4.0

     total cpu time spent up to now is        0.8 secs

     End of self-consistent calculation

          k =-0.0833 0.0833 0.0833 (   402 PWs)   bands (ev):

    -5.5128   5.5755   6.2760   6.2760

          k =-0.2500 0.2500-0.0833 (   389 PWs)   bands (ev):

    -5.0270   3.4927   5.0207   6.0671

          k =-0.4167 0.4167-0.2500 (   403 PWs)   bands (ev):

    -3.9099   0.6829   4.5594   5.4196

          k = 0.4167-0.4167 0.5833 (   401 PWs)   bands (ev):

    -3.1867  -0.4920   4.6332   5.0303

          k = 0.2500-0.2500 0.4167 (   399 PWs)   bands (ev):

    -4.3321   1.5461   5.0876   5.1413

          k = 0.0833-0.0833 0.2500 (   390 PWs)   bands (ev):

    -5.2676   4.5157   5.6154   5.8216

          k =-0.0833 0.4167 0.0833 (   397 PWs)   bands (ev):

    -4.7816   3.3295   4.8703   4.8717

          k =-0.2500 0.5833-0.0833 (   404 PWs)   bands (ev):

    -3.8525   1.4695   3.5194   4.4812

          k = 0.5833-0.2500 0.7500 (   402 PWs)   bands (ev):

    -2.7020  -0.3333   2.9186   4.2454

          k = 0.4167-0.0833 0.5833 (   404 PWs)   bands (ev):

    -3.4474   0.7582   2.8630   4.7462

          k = 0.2500 0.0833 0.4167 (   392 PWs)   bands (ev):

    -4.5512   2.4670   4.2313   5.4341

          k =-0.0833 0.7500 0.0833 (   405 PWs)   bands (ev):

    -3.1286   0.6509   3.4745   3.8253

          k = 0.7500-0.0833 0.9167 (   402 PWs)   bands (ev):

    -1.9048  -0.7099   2.6073   3.4057

          k = 0.5833 0.0833 0.7500 (   397 PWs)   bands (ev):

    -2.2744  -0.3859   2.1177   3.9639

          k = 0.4167 0.2500 0.5833 (   399 PWs)   bands (ev):

    -3.3286   0.0329   3.8429   4.8473

          k =-0.0833-0.9167 0.0833 (   405 PWs)   bands (ev):

    -2.0029  -0.7201   3.1986   3.6064

          k =-0.2500-0.7500-0.0833 (   405 PWs)   bands (ev):

    -2.9541   0.4199   2.9436   3.7522

          k =-0.0833-0.5833 0.0833 (   407 PWs)   bands (ev):

    -4.0634   2.0309   4.0348   4.2545

          k =-0.2500 0.2500 0.2500 (   395 PWs)   bands (ev):

    -4.7928   2.4922   5.6540   5.6540

          k =-0.4167 0.4167 0.0833 (   402 PWs)   bands (ev):

    -4.0994   1.5676   3.4845   5.4838

          k = 0.4167-0.4167 0.9167 (   401 PWs)   bands (ev):

    -2.8906   0.1162   2.3486   4.6794

          k = 0.2500-0.2500 0.7500 (   404 PWs)   bands (ev):

    -2.8393   0.0364   2.8440   4.1862

          k =-0.2500 0.5833 0.2500 (   400 PWs)   bands (ev):

    -3.6654   0.7408   3.9762   4.5669

          k = 0.5833-0.2500 1.0833 (   402 PWs)   bands (ev):

    -2.6401   0.0160   2.4481   3.7476

          k = 0.4167-0.0833 0.9167 (   401 PWs)   bands (ev):

    -1.7898  -0.7178   2.2685   3.0623

          k =-0.2500-1.0833 0.2500 (   400 PWs)   bands (ev):

    -2.0034  -0.6322   2.1400   3.9880

          k =-0.4167 0.4167 0.4167 (   404 PWs)   bands (ev):

    -3.5692  -0.0819   5.2616   5.2616

          k = 0.4167-0.4167 1.2500 (   398 PWs)   bands (ev):

    -2.9473  -0.3795   3.4077   4.8097

     highest occupied level (ev):     6.2760

!    total energy              =     -15.73969103 Ry
     estimated scf accuracy    <       0.00000022 Ry

     The total energy is the sum of the following terms:
     one-electron contribution =       4.91323869 Ry
     hartree contribution      =       1.07860942 Ry
     xc contribution           =      -4.83178054 Ry
     ewald contribution        =     -16.89975859 Ry

     convergence has been achieved in   5 iterations

     Writing output data file ./tmp/Si_exc1.save/

     init_run     :      0.77s CPU      0.09s WALL (       1 calls)
     electrons    :      7.51s CPU      0.66s WALL (       1 calls)

     Called by init_run:
     wfcinit      :      0.74s CPU      0.07s WALL (       1 calls)
     potinit      :      0.01s CPU      0.01s WALL (       1 calls)
     hinit0       :      0.02s CPU      0.02s WALL (       1 calls)

     Called by electrons:
     c_bands      :      6.47s CPU      0.55s WALL (       6 calls)
     sum_band     :      0.89s CPU      0.09s WALL (       6 calls)
     v_of_rho     :      0.14s CPU      0.03s WALL (       6 calls)
     mix_rho      :      0.00s CPU      0.00s WALL (       6 calls)

     Called by c_bands:
     init_us_2    :      0.22s CPU      0.02s WALL (     364 calls)
     cegterg      :      6.26s CPU      0.53s WALL (     168 calls)

     Called by *egterg:
     cdiaghg      :      0.29s CPU      0.03s WALL (     577 calls)
     h_psi        :      6.45s CPU      0.53s WALL (     633 calls)
     g_psi        :      0.02s CPU      0.00s WALL (     437 calls)

     Called by h_psi:
     h_psi:calbec :      0.11s CPU      0.01s WALL (     633 calls)
     vloc_psi     :      6.27s CPU      0.52s WALL (     633 calls)
     add_vuspsi   :      0.05s CPU      0.01s WALL (     633 calls)

     General routines
     calbec       :      0.08s CPU      0.01s WALL (     633 calls)
     fft          :      0.04s CPU      0.01s WALL (      60 calls)
     ffts         :      0.00s CPU      0.00s WALL (       6 calls)
     fftw         :      6.25s CPU      0.53s WALL (    5128 calls)


     PWSCF        :      8.29s CPU      0.77s WALL


   This run was terminated on:  20: 2:13  27Feb2023            

=------------------------------------------------------------------------------=
   JOB DONE.
=------------------------------------------------------------------------------=
