
     Program PWSCF v.6.6 starts on 27Feb2023 at 20:23:32 

     This program is part of the open-source Quantum ESPRESSO suite
     for quantum simulation of materials; please cite
         "P. Giannozzi et al., J. Phys.:Condens. Matter 21 395502 (2009);
         "P. Giannozzi et al., J. Phys.:Condens. Matter 29 465901 (2017);
          URL http://www.quantum-espresso.org", 
     in publications or presentations arising from this work. More details at
     http://www.quantum-espresso.org/quote

     Serial version
     Fft bands division:     nmany     =       1
     Waiting for input...
     Reading input from standard input

     Current dimensions of program PWSCF are:
     Max number of different atomic species (ntypx) = 10
     Max number of k-points (npk) =  40000
     Max angular momentum in pseudopotentials (lmaxx) =  3

     G-vector sticks info
     --------------------
     sticks:   dense  smooth     PW     G-vecs:    dense   smooth      PW
     Sum         313     313    109                 3839     3839     749



     bravais-lattice index     =            2
     lattice parameter (alat)  =      10.8000  a.u.
     unit-cell volume          =     314.9280 (a.u.)^3
     number of atoms/cell      =            2
     number of atomic types    =            1
     number of electrons       =         8.00
     number of Kohn-Sham states=            4
     kinetic-energy cutoff     =      20.0000  Ry
     charge density cutoff     =      80.0000  Ry
     convergence threshold     =      1.0E-06
     mixing beta               =       0.7000
     number of iterations used =            8  plain     mixing
     Exchange-correlation=  SLA  PW   PBE  PBE
                           (   1   4   3   4   0   0   0)

     celldm(1)=  10.800000  celldm(2)=   0.000000  celldm(3)=   0.000000
     celldm(4)=   0.000000  celldm(5)=   0.000000  celldm(6)=   0.000000

     crystal axes: (cart. coord. in units of alat)
               a(1) = (  -0.500000   0.000000   0.500000 )  
               a(2) = (   0.000000   0.500000   0.500000 )  
               a(3) = (  -0.500000   0.500000   0.000000 )  

     reciprocal axes: (cart. coord. in units 2 pi/alat)
               b(1) = ( -1.000000 -1.000000  1.000000 )  
               b(2) = (  1.000000  1.000000  1.000000 )  
               b(3) = ( -1.000000  1.000000 -1.000000 )  


     PseudoPot. # 1 for Si read from file:
     ../pseudo/Si.pbe-rrkj.UPF
     MD5 check sum: cf7ab5690cd9a85b22c4813f7e365554
     Pseudo is Norm-conserving, Zval =  4.0
     Generated by new atomic code, or converted to UPF format
     Using radial grid of  883 points,  3 beta functions with: 
                l(1) =   0
                l(2) =   0
                l(3) =   1

     atomic species   valence    mass     pseudopotential
        Si             4.00    28.08600     Si( 1.00)

     48 Sym. Ops., with inversion, found (24 have fractional translation)



   Cartesian axes

     site n.     atom                  positions (alat units)
         1           Si  tau(   1) = (   0.0000000   0.0000000   0.0000000  )
         2           Si  tau(   2) = (   0.2500000   0.2500000   0.2500000  )

     number of k points=    28
                       cart. coord. in units 2pi/alat
        k(    1) = (  -0.0833333   0.0833333   0.0833333), wk =   0.0185185
        k(    2) = (  -0.2500000   0.2500000  -0.0833333), wk =   0.0555556
        k(    3) = (  -0.4166667   0.4166667  -0.2500000), wk =   0.0555556
        k(    4) = (   0.4166667  -0.4166667   0.5833333), wk =   0.0555556
        k(    5) = (   0.2500000  -0.2500000   0.4166667), wk =   0.0555556
        k(    6) = (   0.0833333  -0.0833333   0.2500000), wk =   0.0555556
        k(    7) = (  -0.0833333   0.4166667   0.0833333), wk =   0.0555556
        k(    8) = (  -0.2500000   0.5833333  -0.0833333), wk =   0.1111111
        k(    9) = (   0.5833333  -0.2500000   0.7500000), wk =   0.1111111
        k(   10) = (   0.4166667  -0.0833333   0.5833333), wk =   0.1111111
        k(   11) = (   0.2500000   0.0833333   0.4166667), wk =   0.1111111
        k(   12) = (  -0.0833333   0.7500000   0.0833333), wk =   0.0555556
        k(   13) = (   0.7500000  -0.0833333   0.9166667), wk =   0.1111111
        k(   14) = (   0.5833333   0.0833333   0.7500000), wk =   0.1111111
        k(   15) = (   0.4166667   0.2500000   0.5833333), wk =   0.1111111
        k(   16) = (  -0.0833333  -0.9166667   0.0833333), wk =   0.0555556
        k(   17) = (  -0.2500000  -0.7500000  -0.0833333), wk =   0.1111111
        k(   18) = (  -0.0833333  -0.5833333   0.0833333), wk =   0.0555556
        k(   19) = (  -0.2500000   0.2500000   0.2500000), wk =   0.0185185
        k(   20) = (  -0.4166667   0.4166667   0.0833333), wk =   0.0555556
        k(   21) = (   0.4166667  -0.4166667   0.9166667), wk =   0.0555556
        k(   22) = (   0.2500000  -0.2500000   0.7500000), wk =   0.0555556
        k(   23) = (  -0.2500000   0.5833333   0.2500000), wk =   0.0555556
        k(   24) = (   0.5833333  -0.2500000   1.0833333), wk =   0.1111111
        k(   25) = (   0.4166667  -0.0833333   0.9166667), wk =   0.1111111
        k(   26) = (  -0.2500000  -1.0833333   0.2500000), wk =   0.0555556
        k(   27) = (  -0.4166667   0.4166667   0.4166667), wk =   0.0185185
        k(   28) = (   0.4166667  -0.4166667   1.2500000), wk =   0.0555556

     Dense  grid:     3839 G-vectors     FFT dimensions: (  24,  24,  24)

     Estimated max dynamical RAM per process >       3.70 MB

     Initial potential from superposition of free atoms

     starting charge    7.99889, renormalised to    8.00000
     Starting wfcs are    8 randomized atomic wfcs

     total cpu time spent up to now is        0.1 secs

     Self-consistent Calculation

     iteration #  1     ecut=    20.00 Ry     beta= 0.70
     Davidson diagonalization with overlap
     ethr =  1.00E-02,  avg # of iterations =  2.0

     Threshold (ethr) on eigenvalues was too large:
     Diagonalizing with lowered threshold

     Davidson diagonalization with overlap
     ethr =  4.46E-04,  avg # of iterations =  2.1

     total cpu time spent up to now is        0.3 secs

     total energy              =     -15.72758078 Ry
     estimated scf accuracy    <       0.04315767 Ry

     iteration #  2     ecut=    20.00 Ry     beta= 0.70
     Davidson diagonalization with overlap
     ethr =  5.39E-04,  avg # of iterations =  1.0

     total cpu time spent up to now is        0.4 secs

     total energy              =     -15.72865375 Ry
     estimated scf accuracy    <       0.00275124 Ry

     iteration #  3     ecut=    20.00 Ry     beta= 0.70
     Davidson diagonalization with overlap
     ethr =  3.44E-05,  avg # of iterations =  1.9

     total cpu time spent up to now is        0.5 secs

     total energy              =     -15.72899412 Ry
     estimated scf accuracy    <       0.00004817 Ry

     iteration #  4     ecut=    20.00 Ry     beta= 0.70
     Davidson diagonalization with overlap
     ethr =  6.02E-07,  avg # of iterations =  5.3

     total cpu time spent up to now is        0.7 secs

     End of self-consistent calculation

          k =-0.0833 0.0833 0.0833 (   495 PWs)   bands (ev):

    -6.1096   3.8532   4.6173   4.6173

          k =-0.2500 0.2500-0.0833 (   485 PWs)   bands (ev):

    -5.6927   1.9040   3.5516   4.4162

          k =-0.4167 0.4167-0.2500 (   481 PWs)   bands (ev):

    -4.7517  -0.5167   3.1006   3.8568

          k = 0.4167-0.4167 0.5833 (   473 PWs)   bands (ev):

    -4.1770  -1.4863   3.1349   3.5315

          k = 0.2500-0.2500 0.4167 (   479 PWs)   bands (ev):

    -5.1027   0.2201   3.5730   3.6014

          k = 0.0833-0.0833 0.2500 (   489 PWs)   bands (ev):

    -5.8987   2.8051   4.0714   4.1858

          k =-0.0833 0.4167 0.0833 (   482 PWs)   bands (ev):

    -5.4809   1.6345   3.3935   3.4372

          k =-0.2500 0.5833-0.0833 (   473 PWs)   bands (ev):

    -4.6896  -0.0150   2.2750   3.0910

          k = 0.5833-0.2500 0.7500 (   473 PWs)   bands (ev):

    -3.7546  -1.4828   1.7143   2.9048

          k = 0.4167-0.0833 0.5833 (   479 PWs)   bands (ev):

    -4.3552  -0.6021   1.7223   3.3113

          k = 0.2500 0.0833 0.4167 (   480 PWs)   bands (ev):

    -5.2858   0.9429   2.8746   3.8675

          k =-0.0833 0.7500 0.0833 (   467 PWs)   bands (ev):

    -4.0635  -0.8136   2.2574   2.5307

          k = 0.7500-0.0833 0.9167 (   475 PWs)   bands (ev):

    -3.0350  -1.9987   1.5632   2.2014

          k = 0.5833 0.0833 0.7500 (   473 PWs)   bands (ev):

    -3.3861  -1.6500   1.1410   2.6685

          k = 0.4167 0.2500 0.5833 (   473 PWs)   bands (ev):

    -4.2720  -1.1006   2.4650   3.3884

          k =-0.0833-0.9167 0.0833 (   467 PWs)   bands (ev):

    -3.1005  -1.9999   2.0254   2.3397

          k =-0.2500-0.7500-0.0833 (   472 PWs)   bands (ev):

    -3.9252  -0.9984   1.8180   2.4975

          k =-0.0833-0.5833 0.0833 (   475 PWs)   bands (ev):

    -4.8644   0.4148   2.7191   2.9039

          k =-0.2500 0.2500 0.2500 (   483 PWs)   bands (ev):

    -5.4934   1.0691   4.0758   4.0758

          k =-0.4167 0.4167 0.0833 (   481 PWs)   bands (ev):

    -4.9040   0.1502   2.2408   3.9169

          k = 0.4167-0.4167 0.9167 (   477 PWs)   bands (ev):

    -3.8973  -1.1685   1.3050   3.2458

          k = 0.2500-0.2500 0.7500 (   472 PWs)   bands (ev):

    -3.8455  -1.2418   1.6958   2.8343

          k =-0.2500 0.5833 0.2500 (   473 PWs)   bands (ev):

    -4.5395  -0.5406   2.5806   3.1596

          k = 0.5833-0.2500 1.0833 (   477 PWs)   bands (ev):

    -3.6775  -1.3163   1.3984   2.5095

          k = 0.4167-0.0833 0.9167 (   475 PWs)   bands (ev):

    -2.9616  -2.0059   1.2901   1.9496

          k =-0.2500-1.0833 0.2500 (   474 PWs)   bands (ev):

    -3.1488  -1.8906   1.1804   2.6640

          k =-0.4167 0.4167 0.4167 (   477 PWs)   bands (ev):

    -4.4808  -1.1387   3.7214   3.7214

          k = 0.4167-0.4167 1.2500 (   473 PWs)   bands (ev):

    -3.9687  -1.4511   2.1037   3.3521

     highest occupied level (ev):     4.6173

!    total energy              =     -15.72906363 Ry
     estimated scf accuracy    <       0.00000007 Ry

     The total energy is the sum of the following terms:
     one-electron contribution =       3.65808630 Ry
     hartree contribution      =       1.23070063 Ry
     xc contribution           =      -4.65696745 Ry
     ewald contribution        =     -15.96088310 Ry

     convergence has been achieved in   4 iterations

     Writing output data file ./tmp/Si_exc1.save/

     init_run     :      0.84s CPU      0.10s WALL (       1 calls)
     electrons    :      6.22s CPU      0.55s WALL (       1 calls)

     Called by init_run:
     wfcinit      :      0.81s CPU      0.07s WALL (       1 calls)
     potinit      :      0.01s CPU      0.01s WALL (       1 calls)
     hinit0       :      0.02s CPU      0.02s WALL (       1 calls)

     Called by electrons:
     c_bands      :      5.39s CPU      0.46s WALL (       5 calls)
     sum_band     :      0.75s CPU      0.08s WALL (       5 calls)
     v_of_rho     :      0.07s CPU      0.02s WALL (       5 calls)
     mix_rho      :      0.00s CPU      0.00s WALL (       5 calls)

     Called by c_bands:
     init_us_2    :      0.20s CPU      0.02s WALL (     308 calls)
     cegterg      :      5.21s CPU      0.44s WALL (     140 calls)

     Called by *egterg:
     cdiaghg      :      0.21s CPU      0.02s WALL (     456 calls)
     h_psi        :      5.53s CPU      0.45s WALL (     512 calls)
     g_psi        :      0.00s CPU      0.00s WALL (     344 calls)

     Called by h_psi:
     h_psi:calbec :      0.13s CPU      0.01s WALL (     512 calls)
     vloc_psi     :      5.20s CPU      0.44s WALL (     512 calls)
     add_vuspsi   :      0.12s CPU      0.01s WALL (     512 calls)

     General routines
     calbec       :      0.10s CPU      0.01s WALL (     512 calls)
     fft          :      0.02s CPU      0.01s WALL (      50 calls)
     ffts         :      0.00s CPU      0.00s WALL (       5 calls)
     fftw         :      5.16s CPU      0.45s WALL (    4204 calls)


     PWSCF        :      7.07s CPU      0.67s WALL


   This run was terminated on:  20:23:33  27Feb2023            

=------------------------------------------------------------------------------=
   JOB DONE.
=------------------------------------------------------------------------------=
