
     Program PWSCF v.6.6 starts on 27Feb2023 at 20: 2:11 

     This program is part of the open-source Quantum ESPRESSO suite
     for quantum simulation of materials; please cite
         "P. Giannozzi et al., J. Phys.:Condens. Matter 21 395502 (2009);
         "P. Giannozzi et al., J. Phys.:Condens. Matter 29 465901 (2017);
          URL http://www.quantum-espresso.org", 
     in publications or presentations arising from this work. More details at
     http://www.quantum-espresso.org/quote

     Serial version
     Fft bands division:     nmany     =       1
     Waiting for input...
     Reading input from standard input

     Current dimensions of program PWSCF are:
     Max number of different atomic species (ntypx) = 10
     Max number of k-points (npk) =  40000
     Max angular momentum in pseudopotentials (lmaxx) =  3

     G-vector sticks info
     --------------------
     sticks:   dense  smooth     PW     G-vecs:    dense   smooth      PW
     Sum         253     253     91                 2741     2741     609



     bravais-lattice index     =            2
     lattice parameter (alat)  =       9.8000  a.u.
     unit-cell volume          =     235.2980 (a.u.)^3
     number of atoms/cell      =            2
     number of atomic types    =            1
     number of electrons       =         8.00
     number of Kohn-Sham states=            4
     kinetic-energy cutoff     =      20.0000  Ry
     charge density cutoff     =      80.0000  Ry
     convergence threshold     =      1.0E-06
     mixing beta               =       0.7000
     number of iterations used =            8  plain     mixing
     Exchange-correlation=  SLA  PW   PBE  PBE
                           (   1   4   3   4   0   0   0)

     celldm(1)=   9.800000  celldm(2)=   0.000000  celldm(3)=   0.000000
     celldm(4)=   0.000000  celldm(5)=   0.000000  celldm(6)=   0.000000

     crystal axes: (cart. coord. in units of alat)
               a(1) = (  -0.500000   0.000000   0.500000 )  
               a(2) = (   0.000000   0.500000   0.500000 )  
               a(3) = (  -0.500000   0.500000   0.000000 )  

     reciprocal axes: (cart. coord. in units 2 pi/alat)
               b(1) = ( -1.000000 -1.000000  1.000000 )  
               b(2) = (  1.000000  1.000000  1.000000 )  
               b(3) = ( -1.000000  1.000000 -1.000000 )  


     PseudoPot. # 1 for Si read from file:
     ../pseudo/Si.pbe-rrkj.UPF
     MD5 check sum: cf7ab5690cd9a85b22c4813f7e365554
     Pseudo is Norm-conserving, Zval =  4.0
     Generated by new atomic code, or converted to UPF format
     Using radial grid of  883 points,  3 beta functions with: 
                l(1) =   0
                l(2) =   0
                l(3) =   1

     atomic species   valence    mass     pseudopotential
        Si             4.00    28.08600     Si( 1.00)

     48 Sym. Ops., with inversion, found (24 have fractional translation)



   Cartesian axes

     site n.     atom                  positions (alat units)
         1           Si  tau(   1) = (   0.0000000   0.0000000   0.0000000  )
         2           Si  tau(   2) = (   0.2500000   0.2500000   0.2500000  )

     number of k points=    28
                       cart. coord. in units 2pi/alat
        k(    1) = (  -0.0833333   0.0833333   0.0833333), wk =   0.0185185
        k(    2) = (  -0.2500000   0.2500000  -0.0833333), wk =   0.0555556
        k(    3) = (  -0.4166667   0.4166667  -0.2500000), wk =   0.0555556
        k(    4) = (   0.4166667  -0.4166667   0.5833333), wk =   0.0555556
        k(    5) = (   0.2500000  -0.2500000   0.4166667), wk =   0.0555556
        k(    6) = (   0.0833333  -0.0833333   0.2500000), wk =   0.0555556
        k(    7) = (  -0.0833333   0.4166667   0.0833333), wk =   0.0555556
        k(    8) = (  -0.2500000   0.5833333  -0.0833333), wk =   0.1111111
        k(    9) = (   0.5833333  -0.2500000   0.7500000), wk =   0.1111111
        k(   10) = (   0.4166667  -0.0833333   0.5833333), wk =   0.1111111
        k(   11) = (   0.2500000   0.0833333   0.4166667), wk =   0.1111111
        k(   12) = (  -0.0833333   0.7500000   0.0833333), wk =   0.0555556
        k(   13) = (   0.7500000  -0.0833333   0.9166667), wk =   0.1111111
        k(   14) = (   0.5833333   0.0833333   0.7500000), wk =   0.1111111
        k(   15) = (   0.4166667   0.2500000   0.5833333), wk =   0.1111111
        k(   16) = (  -0.0833333  -0.9166667   0.0833333), wk =   0.0555556
        k(   17) = (  -0.2500000  -0.7500000  -0.0833333), wk =   0.1111111
        k(   18) = (  -0.0833333  -0.5833333   0.0833333), wk =   0.0555556
        k(   19) = (  -0.2500000   0.2500000   0.2500000), wk =   0.0185185
        k(   20) = (  -0.4166667   0.4166667   0.0833333), wk =   0.0555556
        k(   21) = (   0.4166667  -0.4166667   0.9166667), wk =   0.0555556
        k(   22) = (   0.2500000  -0.2500000   0.7500000), wk =   0.0555556
        k(   23) = (  -0.2500000   0.5833333   0.2500000), wk =   0.0555556
        k(   24) = (   0.5833333  -0.2500000   1.0833333), wk =   0.1111111
        k(   25) = (   0.4166667  -0.0833333   0.9166667), wk =   0.1111111
        k(   26) = (  -0.2500000  -1.0833333   0.2500000), wk =   0.0555556
        k(   27) = (  -0.4166667   0.4166667   0.4166667), wk =   0.0185185
        k(   28) = (   0.4166667  -0.4166667   1.2500000), wk =   0.0555556

     Dense  grid:     2741 G-vectors     FFT dimensions: (  20,  20,  20)

     Estimated max dynamical RAM per process >       2.59 MB

     Initial potential from superposition of free atoms

     starting charge    7.99889, renormalised to    8.00000
     Starting wfcs are    8 randomized atomic wfcs

     total cpu time spent up to now is        0.1 secs

     Self-consistent Calculation

     iteration #  1     ecut=    20.00 Ry     beta= 0.70
     Davidson diagonalization with overlap
     ethr =  1.00E-02,  avg # of iterations =  2.0

     Threshold (ethr) on eigenvalues was too large:
     Diagonalizing with lowered threshold

     Davidson diagonalization with overlap
     ethr =  7.47E-04,  avg # of iterations =  1.7

     total cpu time spent up to now is        0.2 secs

     total energy              =     -15.71283093 Ry
     estimated scf accuracy    <       0.06920025 Ry

     iteration #  2     ecut=    20.00 Ry     beta= 0.70
     Davidson diagonalization with overlap
     ethr =  8.65E-04,  avg # of iterations =  1.0

     total cpu time spent up to now is        0.3 secs

     total energy              =     -15.71572449 Ry
     estimated scf accuracy    <       0.00329877 Ry

     iteration #  3     ecut=    20.00 Ry     beta= 0.70
     Davidson diagonalization with overlap
     ethr =  4.12E-05,  avg # of iterations =  2.6

     total cpu time spent up to now is        0.3 secs

     total energy              =     -15.71665497 Ry
     estimated scf accuracy    <       0.00013356 Ry

     iteration #  4     ecut=    20.00 Ry     beta= 0.70
     Davidson diagonalization with overlap
     ethr =  1.67E-06,  avg # of iterations =  4.0

     total cpu time spent up to now is        0.4 secs

     total energy              =     -15.71672578 Ry
     estimated scf accuracy    <       0.00001071 Ry

     iteration #  5     ecut=    20.00 Ry     beta= 0.70
     Davidson diagonalization with overlap
     ethr =  1.34E-07,  avg # of iterations =  3.5

     total cpu time spent up to now is        0.4 secs

     End of self-consistent calculation

          k =-0.0833 0.0833 0.0833 (   335 PWs)   bands (ev):

    -5.0339   6.8881   7.5984   7.5984

          k =-0.2500 0.2500-0.0833 (   353 PWs)   bands (ev):

    -4.4957   4.6903   6.1975   7.3888

          k =-0.4167 0.4167-0.2500 (   354 PWs)   bands (ev):

    -3.2423   1.5966   5.7312   6.6763

          k = 0.4167-0.4167 0.5833 (   354 PWs)   bands (ev):

    -2.3939   0.2569   5.8390   6.2357

          k = 0.2500-0.2500 0.4167 (   351 PWs)   bands (ev):

    -3.7202   2.5536   6.2780   6.4026

          k = 0.0833-0.0833 0.2500 (   345 PWs)   bands (ev):

    -4.7627   5.7969   6.8463   7.1361

          k =-0.0833 0.4167 0.0833 (   350 PWs)   bands (ev):

    -4.2246   4.6074   6.0186   6.0714

          k =-0.2500 0.5833-0.0833 (   350 PWs)   bands (ev):

    -3.1898   2.6037   4.5314   5.5957

          k = 0.5833-0.2500 0.7500 (   362 PWs)   bands (ev):

    -1.8623   0.5276   3.9114   5.3162

          k = 0.4167-0.0833 0.5833 (   354 PWs)   bands (ev):

    -2.7291   1.7942   3.7959   5.8953

          k = 0.2500 0.0833 0.4167 (   350 PWs)   bands (ev):

    -3.9672   3.6185   5.3262   6.6932

          k =-0.0833 0.7500 0.0833 (   350 PWs)   bands (ev):

    -2.3918   1.7943   4.4504   4.8673

          k = 0.7500-0.0833 0.9167 (   360 PWs)   bands (ev):

    -1.0143   0.3032   3.4407   4.3705

          k = 0.5833 0.0833 0.7500 (   363 PWs)   bands (ev):

    -1.3891   0.5855   2.9110   5.0004

          k = 0.4167 0.2500 0.5833 (   357 PWs)   bands (ev):

    -2.5797   0.8903   4.9609   6.0172

          k =-0.0833-0.9167 0.0833 (   352 PWs)   bands (ev):

    -1.1413   0.2818   4.1402   4.6275

          k =-0.2500-0.7500-0.0833 (   352 PWs)   bands (ev):

    -2.1881   1.5253   3.8519   4.7540

          k =-0.0833-0.5833 0.0833 (   349 PWs)   bands (ev):

    -3.4288   3.2788   5.0950   5.3385

          k =-0.2500 0.2500 0.2500 (   350 PWs)   bands (ev):

    -4.2345   3.5731   6.9168   6.9168

          k =-0.4167 0.4167 0.0833 (   354 PWs)   bands (ev):

    -3.4614   2.6424   4.4950   6.7414

          k = 0.4167-0.4167 0.9167 (   359 PWs)   bands (ev):

    -2.0924   1.0952   3.2036   5.8310

          k = 0.2500-0.2500 0.7500 (   354 PWs)   bands (ev):

    -2.0428   1.0108   3.7841   5.2734

          k =-0.2500 0.5833 0.2500 (   356 PWs)   bands (ev):

    -2.9734   1.7117   5.1132   5.6959

          k = 0.5833-0.2500 1.0833 (   360 PWs)   bands (ev):

    -1.8188   1.0442   3.3049   4.7327

          k = 0.4167-0.0833 0.9167 (   361 PWs)   bands (ev):

    -0.8593   0.2943   3.0508   3.9468

          k =-0.2500-1.0833 0.2500 (   362 PWs)   bands (ev):

    -1.0931   0.3465   2.9077   5.0535

          k =-0.4167 0.4167 0.4167 (   353 PWs)   bands (ev):

    -2.8443   0.7239   6.5015   6.5015

          k = 0.4167-0.4167 1.2500 (   361 PWs)   bands (ev):

    -2.1310   0.4225   4.4697   5.9807

     highest occupied level (ev):     7.5984

!    total energy              =     -15.71673087 Ry
     estimated scf accuracy    <       0.00000030 Ry

     The total energy is the sum of the following terms:
     one-electron contribution =       5.85841426 Ry
     hartree contribution      =       0.97878667 Ry
     xc contribution           =      -4.96438710 Ry
     ewald contribution        =     -17.58954471 Ry

     convergence has been achieved in   5 iterations

     Writing output data file ./tmp/Si_exc1.save/

     init_run     :      0.32s CPU      0.05s WALL (       1 calls)
     electrons    :      3.51s CPU      0.36s WALL (       1 calls)

     Called by init_run:
     wfcinit      :      0.30s CPU      0.03s WALL (       1 calls)
     potinit      :      0.00s CPU      0.00s WALL (       1 calls)
     hinit0       :      0.02s CPU      0.02s WALL (       1 calls)

     Called by electrons:
     c_bands      :      2.76s CPU      0.23s WALL (       6 calls)
     sum_band     :      0.43s CPU      0.04s WALL (       6 calls)
     v_of_rho     :      0.16s CPU      0.02s WALL (       6 calls)
     mix_rho      :      0.02s CPU      0.00s WALL (       6 calls)

     Called by c_bands:
     init_us_2    :      0.14s CPU      0.02s WALL (     364 calls)
     cegterg      :      2.59s CPU      0.22s WALL (     168 calls)

     Called by *egterg:
     cdiaghg      :      0.31s CPU      0.03s WALL (     555 calls)
     h_psi        :      2.08s CPU      0.18s WALL (     611 calls)
     g_psi        :      0.02s CPU      0.00s WALL (     415 calls)

     Called by h_psi:
     h_psi:calbec :      0.09s CPU      0.01s WALL (     611 calls)
     vloc_psi     :      1.91s CPU      0.17s WALL (     611 calls)
     add_vuspsi   :      0.04s CPU      0.01s WALL (     611 calls)

     General routines
     calbec       :      0.08s CPU      0.01s WALL (     611 calls)
     fft          :      0.01s CPU      0.00s WALL (      60 calls)
     ffts         :      0.00s CPU      0.00s WALL (       6 calls)
     fftw         :      1.70s CPU      0.14s WALL (    5042 calls)


     PWSCF        :      3.88s CPU      0.43s WALL


   This run was terminated on:  20: 2:11  27Feb2023            

=------------------------------------------------------------------------------=
   JOB DONE.
=------------------------------------------------------------------------------=
