
     Program PWSCF v.6.6 starts on 27Feb2023 at 20: 2:15 

     This program is part of the open-source Quantum ESPRESSO suite
     for quantum simulation of materials; please cite
         "P. Giannozzi et al., J. Phys.:Condens. Matter 21 395502 (2009);
         "P. Giannozzi et al., J. Phys.:Condens. Matter 29 465901 (2017);
          URL http://www.quantum-espresso.org", 
     in publications or presentations arising from this work. More details at
     http://www.quantum-espresso.org/quote

     Serial version
     Fft bands division:     nmany     =       1
     Waiting for input...
     Reading input from standard input

     Current dimensions of program PWSCF are:
     Max number of different atomic species (ntypx) = 10
     Max number of k-points (npk) =  40000
     Max angular momentum in pseudopotentials (lmaxx) =  3

     G-vector sticks info
     --------------------
     sticks:   dense  smooth     PW     G-vecs:    dense   smooth      PW
     Sum         337     337    121                 4015     4015     869



     bravais-lattice index     =            2
     lattice parameter (alat)  =      11.0000  a.u.
     unit-cell volume          =     332.7500 (a.u.)^3
     number of atoms/cell      =            2
     number of atomic types    =            1
     number of electrons       =         8.00
     number of Kohn-Sham states=            4
     kinetic-energy cutoff     =      20.0000  Ry
     charge density cutoff     =      80.0000  Ry
     convergence threshold     =      1.0E-06
     mixing beta               =       0.7000
     number of iterations used =            8  plain     mixing
     Exchange-correlation=  SLA  PW   PBE  PBE
                           (   1   4   3   4   0   0   0)

     celldm(1)=  11.000000  celldm(2)=   0.000000  celldm(3)=   0.000000
     celldm(4)=   0.000000  celldm(5)=   0.000000  celldm(6)=   0.000000

     crystal axes: (cart. coord. in units of alat)
               a(1) = (  -0.500000   0.000000   0.500000 )  
               a(2) = (   0.000000   0.500000   0.500000 )  
               a(3) = (  -0.500000   0.500000   0.000000 )  

     reciprocal axes: (cart. coord. in units 2 pi/alat)
               b(1) = ( -1.000000 -1.000000  1.000000 )  
               b(2) = (  1.000000  1.000000  1.000000 )  
               b(3) = ( -1.000000  1.000000 -1.000000 )  


     PseudoPot. # 1 for Si read from file:
     ../pseudo/Si.pbe-rrkj.UPF
     MD5 check sum: cf7ab5690cd9a85b22c4813f7e365554
     Pseudo is Norm-conserving, Zval =  4.0
     Generated by new atomic code, or converted to UPF format
     Using radial grid of  883 points,  3 beta functions with: 
                l(1) =   0
                l(2) =   0
                l(3) =   1

     atomic species   valence    mass     pseudopotential
        Si             4.00    28.08600     Si( 1.00)

     48 Sym. Ops., with inversion, found (24 have fractional translation)



   Cartesian axes

     site n.     atom                  positions (alat units)
         1           Si  tau(   1) = (   0.0000000   0.0000000   0.0000000  )
         2           Si  tau(   2) = (   0.2500000   0.2500000   0.2500000  )

     number of k points=    28
                       cart. coord. in units 2pi/alat
        k(    1) = (  -0.0833333   0.0833333   0.0833333), wk =   0.0185185
        k(    2) = (  -0.2500000   0.2500000  -0.0833333), wk =   0.0555556
        k(    3) = (  -0.4166667   0.4166667  -0.2500000), wk =   0.0555556
        k(    4) = (   0.4166667  -0.4166667   0.5833333), wk =   0.0555556
        k(    5) = (   0.2500000  -0.2500000   0.4166667), wk =   0.0555556
        k(    6) = (   0.0833333  -0.0833333   0.2500000), wk =   0.0555556
        k(    7) = (  -0.0833333   0.4166667   0.0833333), wk =   0.0555556
        k(    8) = (  -0.2500000   0.5833333  -0.0833333), wk =   0.1111111
        k(    9) = (   0.5833333  -0.2500000   0.7500000), wk =   0.1111111
        k(   10) = (   0.4166667  -0.0833333   0.5833333), wk =   0.1111111
        k(   11) = (   0.2500000   0.0833333   0.4166667), wk =   0.1111111
        k(   12) = (  -0.0833333   0.7500000   0.0833333), wk =   0.0555556
        k(   13) = (   0.7500000  -0.0833333   0.9166667), wk =   0.1111111
        k(   14) = (   0.5833333   0.0833333   0.7500000), wk =   0.1111111
        k(   15) = (   0.4166667   0.2500000   0.5833333), wk =   0.1111111
        k(   16) = (  -0.0833333  -0.9166667   0.0833333), wk =   0.0555556
        k(   17) = (  -0.2500000  -0.7500000  -0.0833333), wk =   0.1111111
        k(   18) = (  -0.0833333  -0.5833333   0.0833333), wk =   0.0555556
        k(   19) = (  -0.2500000   0.2500000   0.2500000), wk =   0.0185185
        k(   20) = (  -0.4166667   0.4166667   0.0833333), wk =   0.0555556
        k(   21) = (   0.4166667  -0.4166667   0.9166667), wk =   0.0555556
        k(   22) = (   0.2500000  -0.2500000   0.7500000), wk =   0.0555556
        k(   23) = (  -0.2500000   0.5833333   0.2500000), wk =   0.0555556
        k(   24) = (   0.5833333  -0.2500000   1.0833333), wk =   0.1111111
        k(   25) = (   0.4166667  -0.0833333   0.9166667), wk =   0.1111111
        k(   26) = (  -0.2500000  -1.0833333   0.2500000), wk =   0.0555556
        k(   27) = (  -0.4166667   0.4166667   0.4166667), wk =   0.0185185
        k(   28) = (   0.4166667  -0.4166667   1.2500000), wk =   0.0555556

     Dense  grid:     4015 G-vectors     FFT dimensions: (  24,  24,  24)

     Estimated max dynamical RAM per process >       3.84 MB

     Initial potential from superposition of free atoms

     starting charge    7.99889, renormalised to    8.00000
     Starting wfcs are    8 randomized atomic wfcs

     total cpu time spent up to now is        0.1 secs

     Self-consistent Calculation

     iteration #  1     ecut=    20.00 Ry     beta= 0.70
     Davidson diagonalization with overlap
     ethr =  1.00E-02,  avg # of iterations =  2.0

     Threshold (ethr) on eigenvalues was too large:
     Diagonalizing with lowered threshold

     Davidson diagonalization with overlap
     ethr =  4.04E-04,  avg # of iterations =  2.1

     total cpu time spent up to now is        0.3 secs

     total energy              =     -15.71625739 Ry
     estimated scf accuracy    <       0.03918150 Ry

     iteration #  2     ecut=    20.00 Ry     beta= 0.70
     Davidson diagonalization with overlap
     ethr =  4.90E-04,  avg # of iterations =  1.0

     total cpu time spent up to now is        0.4 secs

     total energy              =     -15.71707296 Ry
     estimated scf accuracy    <       0.00268472 Ry

     iteration #  3     ecut=    20.00 Ry     beta= 0.70
     Davidson diagonalization with overlap
     ethr =  3.36E-05,  avg # of iterations =  1.9

     total cpu time spent up to now is        0.5 secs

     total energy              =     -15.71736688 Ry
     estimated scf accuracy    <       0.00004188 Ry

     iteration #  4     ecut=    20.00 Ry     beta= 0.70
     Davidson diagonalization with overlap
     ethr =  5.23E-07,  avg # of iterations =  5.5

     total cpu time spent up to now is        0.7 secs

     End of self-consistent calculation

          k =-0.0833 0.0833 0.0833 (   531 PWs)   bands (ev):

    -6.2826   3.3186   4.1362   4.1362

          k =-0.2500 0.2500-0.0833 (   511 PWs)   bands (ev):

    -5.8864   1.4152   3.1280   3.9398

          k =-0.4167 0.4167-0.2500 (   508 PWs)   bands (ev):

    -4.9976  -0.8826   2.6809   3.4072

          k = 0.4167-0.4167 0.5833 (   502 PWs)   bands (ev):

    -4.4641  -1.7924   2.7043   3.1005

          k = 0.2500-0.2500 0.4167 (   504 PWs)   bands (ev):

    -5.3278  -0.1850   3.1222   3.1728

          k = 0.0833-0.0833 0.2500 (   515 PWs)   bands (ev):

    -6.0820   2.2737   3.6239   3.7158

          k =-0.0833 0.4167 0.0833 (   506 PWs)   bands (ev):

    -5.6847   1.1173   2.9718   3.0230

          k =-0.2500 0.5833-0.0833 (   508 PWs)   bands (ev):

    -4.9347  -0.4624   1.9195   2.6901

          k = 0.5833-0.2500 0.7500 (   499 PWs)   bands (ev):

    -4.0606  -1.8350   1.3748   2.5173

          k = 0.4167-0.0833 0.5833 (   503 PWs)   bands (ev):

    -4.6208  -1.0130   1.3980   2.8975

          k = 0.2500 0.0833 0.4167 (   507 PWs)   bands (ev):

    -5.5002   0.4772   2.4857   3.4170

          k =-0.0833 0.7500 0.0833 (   498 PWs)   bands (ev):

    -4.3382  -1.2473   1.9064   2.1586

          k = 0.7500-0.0833 0.9167 (   495 PWs)   bands (ev):

    -3.3667  -2.3781   1.2613   1.8542

          k = 0.5833 0.0833 0.7500 (   503 PWs)   bands (ev):

    -3.7097  -2.0279   0.8612   2.2944

          k = 0.4167 0.2500 0.5833 (   506 PWs)   bands (ev):

    -4.5471  -1.4478   2.0724   2.9681

          k =-0.0833-0.9167 0.0833 (   494 PWs)   bands (ev):

    -3.4237  -2.3776   1.6872   1.9761

          k =-0.2500-0.7500-0.0833 (   499 PWs)   bands (ev):

    -4.2101  -1.4189   1.4946   2.1348

          k =-0.0833-0.5833 0.0833 (   500 PWs)   bands (ev):

    -5.0989  -0.0685   2.3407   2.5151

          k =-0.2500 0.2500 0.2500 (   510 PWs)   bands (ev):

    -5.6976   0.6337   3.6201   3.6201

          k =-0.4167 0.4167 0.0833 (   505 PWs)   bands (ev):

    -5.1392  -0.2810   1.8861   3.4658

          k = 0.4167-0.4167 0.9167 (   505 PWs)   bands (ev):

    -4.1912  -1.5558   1.0083   2.8328

          k = 0.2500-0.2500 0.7500 (   504 PWs)   bands (ev):

    -4.1397  -1.6273   1.3695   2.4452

          k =-0.2500 0.5833 0.2500 (   506 PWs)   bands (ev):

    -4.7952  -0.9315   2.1841   2.7542

          k = 0.5833-0.2500 1.0833 (   500 PWs)   bands (ev):

    -3.9809  -1.7136   1.0990   2.1506

          k = 0.4167-0.0833 0.9167 (   502 PWs)   bands (ev):

    -3.3036  -2.3851   1.0070   1.6267

          k =-0.2500-1.0833 0.2500 (   500 PWs)   bands (ev):

    -3.4827  -2.2640   0.9033   2.2833

          k =-0.4167 0.4167 0.4167 (   498 PWs)   bands (ev):

    -4.7464  -1.4611   3.2787   3.2787

          k = 0.4167-0.4167 1.2500 (   505 PWs)   bands (ev):

    -4.2652  -1.7813   1.7334   2.9324

     highest occupied level (ev):     4.1362

!    total energy              =     -15.71743430 Ry
     estimated scf accuracy    <       0.00000013 Ry

     The total energy is the sum of the following terms:
     one-electron contribution =       3.27554810 Ry
     hartree contribution      =       1.28242304 Ry
     xc contribution           =      -4.60472021 Ry
     ewald contribution        =     -15.67068523 Ry

     convergence has been achieved in   4 iterations

     Writing output data file ./tmp/Si_exc1.save/

     init_run     :      0.84s CPU      0.10s WALL (       1 calls)
     electrons    :      6.24s CPU      0.55s WALL (       1 calls)

     Called by init_run:
     wfcinit      :      0.81s CPU      0.07s WALL (       1 calls)
     potinit      :      0.01s CPU      0.01s WALL (       1 calls)
     hinit0       :      0.02s CPU      0.02s WALL (       1 calls)

     Called by electrons:
     c_bands      :      5.40s CPU      0.46s WALL (       5 calls)
     sum_band     :      0.76s CPU      0.08s WALL (       5 calls)
     v_of_rho     :      0.08s CPU      0.02s WALL (       5 calls)
     mix_rho      :      0.00s CPU      0.00s WALL (       5 calls)

     Called by c_bands:
     init_us_2    :      0.24s CPU      0.02s WALL (     308 calls)
     cegterg      :      5.16s CPU      0.44s WALL (     140 calls)

     Called by *egterg:
     cdiaghg      :      0.29s CPU      0.02s WALL (     461 calls)
     h_psi        :      5.49s CPU      0.46s WALL (     517 calls)
     g_psi        :      0.00s CPU      0.00s WALL (     349 calls)

     Called by h_psi:
     h_psi:calbec :      0.20s CPU      0.01s WALL (     517 calls)
     vloc_psi     :      5.13s CPU      0.44s WALL (     517 calls)
     add_vuspsi   :      0.13s CPU      0.01s WALL (     517 calls)

     General routines
     calbec       :      0.19s CPU      0.01s WALL (     517 calls)
     fft          :      0.03s CPU      0.01s WALL (      50 calls)
     ffts         :      0.00s CPU      0.00s WALL (       5 calls)
     fftw         :      5.13s CPU      0.45s WALL (    4224 calls)


     PWSCF        :      7.09s CPU      0.67s WALL


   This run was terminated on:  20: 2:15  27Feb2023            

=------------------------------------------------------------------------------=
   JOB DONE.
=------------------------------------------------------------------------------=
