
     Program PWSCF v.6.6 starts on 27Feb2023 at 20:23:31 

     This program is part of the open-source Quantum ESPRESSO suite
     for quantum simulation of materials; please cite
         "P. Giannozzi et al., J. Phys.:Condens. Matter 21 395502 (2009);
         "P. Giannozzi et al., J. Phys.:Condens. Matter 29 465901 (2017);
          URL http://www.quantum-espresso.org", 
     in publications or presentations arising from this work. More details at
     http://www.quantum-espresso.org/quote

     Serial version
     Fft bands division:     nmany     =       1
     Waiting for input...
     Reading input from standard input

     Current dimensions of program PWSCF are:
     Max number of different atomic species (ntypx) = 10
     Max number of k-points (npk) =  40000
     Max angular momentum in pseudopotentials (lmaxx) =  3

     G-vector sticks info
     --------------------
     sticks:   dense  smooth     PW     G-vecs:    dense   smooth      PW
     Sum         313     313    109                 3647     3647     725



     bravais-lattice index     =            2
     lattice parameter (alat)  =      10.6000  a.u.
     unit-cell volume          =     297.7540 (a.u.)^3
     number of atoms/cell      =            2
     number of atomic types    =            1
     number of electrons       =         8.00
     number of Kohn-Sham states=            4
     kinetic-energy cutoff     =      20.0000  Ry
     charge density cutoff     =      80.0000  Ry
     convergence threshold     =      1.0E-06
     mixing beta               =       0.7000
     number of iterations used =            8  plain     mixing
     Exchange-correlation=  SLA  PW   PBE  PBE
                           (   1   4   3   4   0   0   0)

     celldm(1)=  10.600000  celldm(2)=   0.000000  celldm(3)=   0.000000
     celldm(4)=   0.000000  celldm(5)=   0.000000  celldm(6)=   0.000000

     crystal axes: (cart. coord. in units of alat)
               a(1) = (  -0.500000   0.000000   0.500000 )  
               a(2) = (   0.000000   0.500000   0.500000 )  
               a(3) = (  -0.500000   0.500000   0.000000 )  

     reciprocal axes: (cart. coord. in units 2 pi/alat)
               b(1) = ( -1.000000 -1.000000  1.000000 )  
               b(2) = (  1.000000  1.000000  1.000000 )  
               b(3) = ( -1.000000  1.000000 -1.000000 )  


     PseudoPot. # 1 for Si read from file:
     ../pseudo/Si.pbe-rrkj.UPF
     MD5 check sum: cf7ab5690cd9a85b22c4813f7e365554
     Pseudo is Norm-conserving, Zval =  4.0
     Generated by new atomic code, or converted to UPF format
     Using radial grid of  883 points,  3 beta functions with: 
                l(1) =   0
                l(2) =   0
                l(3) =   1

     atomic species   valence    mass     pseudopotential
        Si             4.00    28.08600     Si( 1.00)

     48 Sym. Ops., with inversion, found (24 have fractional translation)



   Cartesian axes

     site n.     atom                  positions (alat units)
         1           Si  tau(   1) = (   0.0000000   0.0000000   0.0000000  )
         2           Si  tau(   2) = (   0.2500000   0.2500000   0.2500000  )

     number of k points=    28
                       cart. coord. in units 2pi/alat
        k(    1) = (  -0.0833333   0.0833333   0.0833333), wk =   0.0185185
        k(    2) = (  -0.2500000   0.2500000  -0.0833333), wk =   0.0555556
        k(    3) = (  -0.4166667   0.4166667  -0.2500000), wk =   0.0555556
        k(    4) = (   0.4166667  -0.4166667   0.5833333), wk =   0.0555556
        k(    5) = (   0.2500000  -0.2500000   0.4166667), wk =   0.0555556
        k(    6) = (   0.0833333  -0.0833333   0.2500000), wk =   0.0555556
        k(    7) = (  -0.0833333   0.4166667   0.0833333), wk =   0.0555556
        k(    8) = (  -0.2500000   0.5833333  -0.0833333), wk =   0.1111111
        k(    9) = (   0.5833333  -0.2500000   0.7500000), wk =   0.1111111
        k(   10) = (   0.4166667  -0.0833333   0.5833333), wk =   0.1111111
        k(   11) = (   0.2500000   0.0833333   0.4166667), wk =   0.1111111
        k(   12) = (  -0.0833333   0.7500000   0.0833333), wk =   0.0555556
        k(   13) = (   0.7500000  -0.0833333   0.9166667), wk =   0.1111111
        k(   14) = (   0.5833333   0.0833333   0.7500000), wk =   0.1111111
        k(   15) = (   0.4166667   0.2500000   0.5833333), wk =   0.1111111
        k(   16) = (  -0.0833333  -0.9166667   0.0833333), wk =   0.0555556
        k(   17) = (  -0.2500000  -0.7500000  -0.0833333), wk =   0.1111111
        k(   18) = (  -0.0833333  -0.5833333   0.0833333), wk =   0.0555556
        k(   19) = (  -0.2500000   0.2500000   0.2500000), wk =   0.0185185
        k(   20) = (  -0.4166667   0.4166667   0.0833333), wk =   0.0555556
        k(   21) = (   0.4166667  -0.4166667   0.9166667), wk =   0.0555556
        k(   22) = (   0.2500000  -0.2500000   0.7500000), wk =   0.0555556
        k(   23) = (  -0.2500000   0.5833333   0.2500000), wk =   0.0555556
        k(   24) = (   0.5833333  -0.2500000   1.0833333), wk =   0.1111111
        k(   25) = (   0.4166667  -0.0833333   0.9166667), wk =   0.1111111
        k(   26) = (  -0.2500000  -1.0833333   0.2500000), wk =   0.0555556
        k(   27) = (  -0.4166667   0.4166667   0.4166667), wk =   0.0185185
        k(   28) = (   0.4166667  -0.4166667   1.2500000), wk =   0.0555556

     Dense  grid:     3647 G-vectors     FFT dimensions: (  24,  24,  24)

     Estimated max dynamical RAM per process >       3.57 MB

     Initial potential from superposition of free atoms

     starting charge    7.99889, renormalised to    8.00000
     Starting wfcs are    8 randomized atomic wfcs

     total cpu time spent up to now is        0.1 secs

     Self-consistent Calculation

     iteration #  1     ecut=    20.00 Ry     beta= 0.70
     Davidson diagonalization with overlap
     ethr =  1.00E-02,  avg # of iterations =  2.0

     Threshold (ethr) on eigenvalues was too large:
     Diagonalizing with lowered threshold

     Davidson diagonalization with overlap
     ethr =  4.92E-04,  avg # of iterations =  2.1

     total cpu time spent up to now is        0.3 secs

     total energy              =     -15.73540391 Ry
     estimated scf accuracy    <       0.04747664 Ry

     iteration #  2     ecut=    20.00 Ry     beta= 0.70
     Davidson diagonalization with overlap
     ethr =  5.93E-04,  avg # of iterations =  1.0

     total cpu time spent up to now is        0.4 secs

     total energy              =     -15.73672693 Ry
     estimated scf accuracy    <       0.00288238 Ry

     iteration #  3     ecut=    20.00 Ry     beta= 0.70
     Davidson diagonalization with overlap
     ethr =  3.60E-05,  avg # of iterations =  2.0

     total cpu time spent up to now is        0.5 secs

     total energy              =     -15.73715485 Ry
     estimated scf accuracy    <       0.00006285 Ry

     iteration #  4     ecut=    20.00 Ry     beta= 0.70
     Davidson diagonalization with overlap
     ethr =  7.86E-07,  avg # of iterations =  5.2

     total cpu time spent up to now is        0.7 secs

     End of self-consistent calculation

          k =-0.0833 0.0833 0.0833 (   450 PWs)   bands (ev):

    -5.9267   4.4005   5.1298   5.1298

          k =-0.2500 0.2500-0.0833 (   457 PWs)   bands (ev):

    -5.4881   2.4085   4.0041   4.9248

          k =-0.4167 0.4167-0.2500 (   446 PWs)   bands (ev):

    -4.4918  -0.1375   3.5495   4.3373

          k = 0.4167-0.4167 0.5833 (   449 PWs)   bands (ev):

    -3.8723  -1.1709   3.5955   3.9924

          k = 0.2500-0.2500 0.4167 (   449 PWs)   bands (ev):

    -4.8651   0.6395   4.0554   4.0592

          k = 0.0833-0.0833 0.2500 (   462 PWs)   bands (ev):

    -5.7050   3.3506   4.5482   4.6887

          k =-0.0833 0.4167 0.0833 (   457 PWs)   bands (ev):

    -5.2656   2.1713   3.8457   3.8797

          k =-0.2500 0.5833-0.0833 (   450 PWs)   bands (ev):

    -4.4309   0.4521   2.6561   3.5190

          k = 0.5833-0.2500 0.7500 (   448 PWs)   bands (ev):

    -3.4301  -1.1183   2.0809   3.3182

          k = 0.4167-0.0833 0.5833 (   445 PWs)   bands (ev):

    -4.0745  -0.1735   2.0709   3.7534

          k = 0.2500 0.0833 0.4167 (   455 PWs)   bands (ev):

    -5.0594   1.4256   3.2912   4.3493

          k =-0.0833 0.7500 0.0833 (   451 PWs)   bands (ev):

    -3.7739  -0.3570   2.6319   2.9286

          k = 0.7500-0.0833 0.9167 (   449 PWs)   bands (ev):

    -2.6846  -1.5984   1.8851   2.5723

          k = 0.5833 0.0833 0.7500 (   450 PWs)   bands (ev):

    -3.0430  -1.2540   1.4404   3.0676

          k = 0.4167 0.2500 0.5833 (   448 PWs)   bands (ev):

    -3.9808  -0.7416   2.8870   3.8373

          k =-0.0833-0.9167 0.0833 (   454 PWs)   bands (ev):

    -2.7596  -1.6018   2.3862   2.7287

          k =-0.2500-0.7500-0.0833 (   451 PWs)   bands (ev):

    -3.6245  -0.5559   2.1637   2.8844

          k =-0.0833-0.5833 0.0833 (   449 PWs)   bands (ev):

    -4.6170   0.9214   3.1235   3.3198

          k =-0.2500 0.2500 0.2500 (   459 PWs)   bands (ev):

    -5.2778   1.5196   4.5619   4.5619

          k =-0.4167 0.4167 0.0833 (   451 PWs)   bands (ev):

    -4.6556   0.5982   2.6217   4.3991

          k = 0.4167-0.4167 0.9167 (   447 PWs)   bands (ev):

    -3.5862  -0.7642   1.6237   3.6870

          k = 0.2500-0.2500 0.7500 (   447 PWs)   bands (ev):

    -3.5343  -0.8395   2.0464   3.2500

          k =-0.2500 0.5833 0.2500 (   446 PWs)   bands (ev):

    -4.2694  -0.1353   3.0074   3.5926

          k = 0.5833-0.2500 1.0833 (   446 PWs)   bands (ev):

    -3.3566  -0.8993   1.7198   2.8918

          k = 0.4167-0.0833 0.9167 (   448 PWs)   bands (ev):

    -2.5993  -1.6058   1.5918   2.2932

          k =-0.2500-1.0833 0.2500 (   449 PWs)   bands (ev):

    -2.7949  -1.4980   1.4762   3.0710

          k =-0.4167 0.4167 0.4167 (   449 PWs)   bands (ev):

    -4.1996  -0.8048   4.1948   4.1948

          k = 0.4167-0.4167 1.2500 (   446 PWs)   bands (ev):

    -3.6541  -1.1105   2.5023   3.8005

     highest occupied level (ev):     5.1298

!    total energy              =     -15.73722614 Ry
     estimated scf accuracy    <       0.00000044 Ry

     The total energy is the sum of the following terms:
     one-electron contribution =       4.05708859 Ry
     hartree contribution      =       1.18011017 Ry
     xc contribution           =      -4.71239306 Ry
     ewald contribution        =     -16.26203184 Ry

     convergence has been achieved in   4 iterations

     Writing output data file ./tmp/Si_exc1.save/

     init_run     :      0.83s CPU      0.10s WALL (       1 calls)
     electrons    :      6.19s CPU      0.55s WALL (       1 calls)

     Called by init_run:
     wfcinit      :      0.80s CPU      0.07s WALL (       1 calls)
     potinit      :      0.00s CPU      0.01s WALL (       1 calls)
     hinit0       :      0.02s CPU      0.02s WALL (       1 calls)

     Called by electrons:
     c_bands      :      5.36s CPU      0.45s WALL (       5 calls)
     sum_band     :      0.76s CPU      0.08s WALL (       5 calls)
     v_of_rho     :      0.07s CPU      0.02s WALL (       5 calls)
     mix_rho      :      0.00s CPU      0.00s WALL (       5 calls)

     Called by c_bands:
     init_us_2    :      0.18s CPU      0.02s WALL (     308 calls)
     cegterg      :      5.20s CPU      0.44s WALL (     140 calls)

     Called by *egterg:
     cdiaghg      :      0.38s CPU      0.03s WALL (     455 calls)
     h_psi        :      5.39s CPU      0.45s WALL (     511 calls)
     g_psi        :      0.04s CPU      0.00s WALL (     343 calls)

     Called by h_psi:
     h_psi:calbec :      0.12s CPU      0.01s WALL (     511 calls)
     vloc_psi     :      5.08s CPU      0.43s WALL (     511 calls)
     add_vuspsi   :      0.17s CPU      0.01s WALL (     511 calls)

     General routines
     calbec       :      0.12s CPU      0.01s WALL (     511 calls)
     fft          :      0.03s CPU      0.01s WALL (      50 calls)
     ffts         :      0.00s CPU      0.00s WALL (       5 calls)
     fftw         :      5.08s CPU      0.44s WALL (    4200 calls)


     PWSCF        :      7.03s CPU      0.67s WALL


   This run was terminated on:  20:23:32  27Feb2023            

=------------------------------------------------------------------------------=
   JOB DONE.
=------------------------------------------------------------------------------=
