
     Program PWSCF v.6.6 starts on 19Feb2023 at 21:18:56 

     This program is part of the open-source Quantum ESPRESSO suite
     for quantum simulation of materials; please cite
         "P. Giannozzi et al., J. Phys.:Condens. Matter 21 395502 (2009);
         "P. Giannozzi et al., J. Phys.:Condens. Matter 29 465901 (2017);
          URL http://www.quantum-espresso.org", 
     in publications or presentations arising from this work. More details at
     http://www.quantum-espresso.org/quote

     Serial version
     Fft bands division:     nmany     =       1
     Waiting for input...
     Reading input from standard input

     Current dimensions of program PWSCF are:
     Max number of different atomic species (ntypx) = 10
     Max number of k-points (npk) =  40000
     Max angular momentum in pseudopotentials (lmaxx) =  3

     G-vector sticks info
     --------------------
     sticks:   dense  smooth     PW     G-vecs:    dense   smooth      PW
     Sum         199     199     85                 1917     1917     459



     bravais-lattice index     =            2
     lattice parameter (alat)  =      10.0000  a.u.
     unit-cell volume          =     250.0000 (a.u.)^3
     number of atoms/cell      =            2
     number of atomic types    =            1
     number of electrons       =         8.00
     number of Kohn-Sham states=            4
     kinetic-energy cutoff     =      15.0000  Ry
     charge density cutoff     =      60.0000  Ry
     convergence threshold     =      1.0E-06
     mixing beta               =       0.7000
     number of iterations used =            8  plain     mixing
     Exchange-correlation=  SLA  PW   PBE  PBE
                           (   1   4   3   4   0   0   0)

     celldm(1)=  10.000000  celldm(2)=   0.000000  celldm(3)=   0.000000
     celldm(4)=   0.000000  celldm(5)=   0.000000  celldm(6)=   0.000000

     crystal axes: (cart. coord. in units of alat)
               a(1) = (  -0.500000   0.000000   0.500000 )  
               a(2) = (   0.000000   0.500000   0.500000 )  
               a(3) = (  -0.500000   0.500000   0.000000 )  

     reciprocal axes: (cart. coord. in units 2 pi/alat)
               b(1) = ( -1.000000 -1.000000  1.000000 )  
               b(2) = (  1.000000  1.000000  1.000000 )  
               b(3) = ( -1.000000  1.000000 -1.000000 )  


     PseudoPot. # 1 for Si read from file:
     ./Si.pbe-rrkj.UPF
     MD5 check sum: cf7ab5690cd9a85b22c4813f7e365554
     Pseudo is Norm-conserving, Zval =  4.0
     Generated by new atomic code, or converted to UPF format
     Using radial grid of  883 points,  3 beta functions with: 
                l(1) =   0
                l(2) =   0
                l(3) =   1

     atomic species   valence    mass     pseudopotential
        Si             4.00    28.08600     Si( 1.00)

     48 Sym. Ops., with inversion, found (24 have fractional translation)



   Cartesian axes

     site n.     atom                  positions (alat units)
         1           Si  tau(   1) = (   0.0000000   0.0000000   0.0000000  )
         2           Si  tau(   2) = (   0.2500000   0.2500000   0.2500000  )

     number of k points=    28
                       cart. coord. in units 2pi/alat
        k(    1) = (  -0.0833333   0.0833333   0.0833333), wk =   0.0185185
        k(    2) = (  -0.2500000   0.2500000  -0.0833333), wk =   0.0555556
        k(    3) = (  -0.4166667   0.4166667  -0.2500000), wk =   0.0555556
        k(    4) = (   0.4166667  -0.4166667   0.5833333), wk =   0.0555556
        k(    5) = (   0.2500000  -0.2500000   0.4166667), wk =   0.0555556
        k(    6) = (   0.0833333  -0.0833333   0.2500000), wk =   0.0555556
        k(    7) = (  -0.0833333   0.4166667   0.0833333), wk =   0.0555556
        k(    8) = (  -0.2500000   0.5833333  -0.0833333), wk =   0.1111111
        k(    9) = (   0.5833333  -0.2500000   0.7500000), wk =   0.1111111
        k(   10) = (   0.4166667  -0.0833333   0.5833333), wk =   0.1111111
        k(   11) = (   0.2500000   0.0833333   0.4166667), wk =   0.1111111
        k(   12) = (  -0.0833333   0.7500000   0.0833333), wk =   0.0555556
        k(   13) = (   0.7500000  -0.0833333   0.9166667), wk =   0.1111111
        k(   14) = (   0.5833333   0.0833333   0.7500000), wk =   0.1111111
        k(   15) = (   0.4166667   0.2500000   0.5833333), wk =   0.1111111
        k(   16) = (  -0.0833333  -0.9166667   0.0833333), wk =   0.0555556
        k(   17) = (  -0.2500000  -0.7500000  -0.0833333), wk =   0.1111111
        k(   18) = (  -0.0833333  -0.5833333   0.0833333), wk =   0.0555556
        k(   19) = (  -0.2500000   0.2500000   0.2500000), wk =   0.0185185
        k(   20) = (  -0.4166667   0.4166667   0.0833333), wk =   0.0555556
        k(   21) = (   0.4166667  -0.4166667   0.9166667), wk =   0.0555556
        k(   22) = (   0.2500000  -0.2500000   0.7500000), wk =   0.0555556
        k(   23) = (  -0.2500000   0.5833333   0.2500000), wk =   0.0555556
        k(   24) = (   0.5833333  -0.2500000   1.0833333), wk =   0.1111111
        k(   25) = (   0.4166667  -0.0833333   0.9166667), wk =   0.1111111
        k(   26) = (  -0.2500000  -1.0833333   0.2500000), wk =   0.0555556
        k(   27) = (  -0.4166667   0.4166667   0.4166667), wk =   0.0185185
        k(   28) = (   0.4166667  -0.4166667   1.2500000), wk =   0.0555556

     Dense  grid:     1917 G-vectors     FFT dimensions: (  20,  20,  20)

     Estimated max dynamical RAM per process >       1.99 MB

     Initial potential from superposition of free atoms

     starting charge    7.99889, renormalised to    8.00000
     Starting wfcs are    8 randomized atomic wfcs

     total cpu time spent up to now is        0.1 secs

     Self-consistent Calculation

     iteration #  1     ecut=    15.00 Ry     beta= 0.70
     Davidson diagonalization with overlap
     ethr =  1.00E-02,  avg # of iterations =  2.0

     Threshold (ethr) on eigenvalues was too large:
     Diagonalizing with lowered threshold

     Davidson diagonalization with overlap
     ethr =  6.74E-04,  avg # of iterations =  1.7

     total cpu time spent up to now is        0.1 secs

     total energy              =     -15.72328826 Ry
     estimated scf accuracy    <       0.06258031 Ry

     iteration #  2     ecut=    15.00 Ry     beta= 0.70
     Davidson diagonalization with overlap
     ethr =  7.82E-04,  avg # of iterations =  1.0

     total cpu time spent up to now is        0.2 secs

     total energy              =     -15.72559319 Ry
     estimated scf accuracy    <       0.00318660 Ry

     iteration #  3     ecut=    15.00 Ry     beta= 0.70
     Davidson diagonalization with overlap
     ethr =  3.98E-05,  avg # of iterations =  2.5

     total cpu time spent up to now is        0.2 secs

     total energy              =     -15.72639287 Ry
     estimated scf accuracy    <       0.00011790 Ry

     iteration #  4     ecut=    15.00 Ry     beta= 0.70
     Davidson diagonalization with overlap
     ethr =  1.47E-06,  avg # of iterations =  4.2

     total cpu time spent up to now is        0.3 secs

     total energy              =     -15.72646320 Ry
     estimated scf accuracy    <       0.00000851 Ry

     iteration #  5     ecut=    15.00 Ry     beta= 0.70
     Davidson diagonalization with overlap
     ethr =  1.06E-07,  avg # of iterations =  4.0

     total cpu time spent up to now is        0.3 secs

     End of self-consistent calculation

          k =-0.0833 0.0833 0.0833 (   259 PWs)   bands (ev):

    -5.2833   6.2168   6.9187   6.9187

          k =-0.2500 0.2500-0.0833 (   251 PWs)   bands (ev):

    -4.7718   4.0829   5.5959   6.7090

          k =-0.4167 0.4167-0.2500 (   248 PWs)   bands (ev):

    -3.5880   1.1322   5.1341   6.0330

          k = 0.4167-0.4167 0.5833 (   246 PWs)   bands (ev):

    -2.8048  -0.1218   5.2221   5.6231

          k = 0.2500-0.2500 0.4167 (   246 PWs)   bands (ev):

    -4.0368   2.0419   5.6727   5.7582

          k = 0.0833-0.0833 0.2500 (   255 PWs)   bands (ev):

    -5.0256   5.1465   6.2152   6.4597

          k =-0.0833 0.4167 0.0833 (   243 PWs)   bands (ev):

    -4.5127   3.9594   5.4359   5.4565

          k =-0.2500 0.5833-0.0833 (   245 PWs)   bands (ev):

    -3.5320   2.0257   4.0138   5.0291

          k = 0.5833-0.2500 0.7500 (   245 PWs)   bands (ev):

    -2.2970   0.0924   3.4027   4.7721

          k = 0.4167-0.0833 0.5833 (   246 PWs)   bands (ev):

    -3.0999   1.2666   3.3184   5.3112

          k = 0.2500 0.0833 0.4167 (   247 PWs)   bands (ev):

    -4.2694   3.0343   4.7670   6.0493

          k =-0.0833 0.7500 0.0833 (   242 PWs)   bands (ev):

    -2.7707   1.2070   3.9561   4.3383

          k = 0.7500-0.0833 0.9167 (   242 PWs)   bands (ev):

    -1.4718  -0.2172   3.0185   3.8822

          k = 0.5833 0.0833 0.7500 (   244 PWs)   bands (ev):

    -1.8462   0.0919   2.5065   4.4739

          k = 0.4167 0.2500 0.5833 (   247 PWs)   bands (ev):

    -2.9671   0.4552   4.3884   5.4214

          k =-0.0833-0.9167 0.0833 (   238 PWs)   bands (ev):

    -1.5834  -0.2321   3.6634   4.1106

          k =-0.2500-0.7500-0.0833 (   245 PWs)   bands (ev):

    -2.5832   0.9588   3.3889   4.2459

          k =-0.0833-0.5833 0.0833 (   245 PWs)   bands (ev):

    -3.7565   2.6399   4.5540   4.7888

          k =-0.2500 0.2500 0.2500 (   247 PWs)   bands (ev):

    -4.5233   3.0249   6.2728   6.2728

          k =-0.4167 0.4167 0.0833 (   251 PWs)   bands (ev):

    -3.7915   2.0962   3.9773   6.0988

          k = 0.4167-0.4167 0.9167 (   244 PWs)   bands (ev):

    -2.5040   0.5983   2.7660   5.2457

          k = 0.2500-0.2500 0.7500 (   242 PWs)   bands (ev):

    -2.4534   0.5151   3.3028   4.7229

          k =-0.2500 0.5833 0.2500 (   242 PWs)   bands (ev):

    -3.3303   1.2192   4.5322   5.1222

          k = 0.5833-0.2500 1.0833 (   245 PWs)   bands (ev):

    -2.2421   0.5190   2.8667   4.2336

          k = 0.4167-0.0833 0.9167 (   245 PWs)   bands (ev):

    -1.3398  -0.2246   2.6540   3.4989

          k =-0.2500-1.0833 0.2500 (   241 PWs)   bands (ev):

    -1.5612  -0.1529   2.5182   4.5133

          k =-0.4167 0.4167 0.4167 (   241 PWs)   bands (ev):

    -3.2196   0.3152   5.8718   5.8718

          k = 0.4167-0.4167 1.2500 (   248 PWs)   bands (ev):

    -2.5540   0.0174   3.9251   5.3842

     highest occupied level (ev):     6.9187

!    total energy              =     -15.72646693 Ry
     estimated scf accuracy    <       0.00000025 Ry

     The total energy is the sum of the following terms:
     one-electron contribution =       5.37857659 Ry
     hartree contribution      =       1.02681833 Ry
     xc contribution           =      -4.89410806 Ry
     ewald contribution        =     -17.23775379 Ry

     convergence has been achieved in   5 iterations

     Writing output data file ./output/Si_exc1.save/

     init_run     :      0.28s CPU      0.04s WALL (       1 calls)
     electrons    :      3.04s CPU      0.26s WALL (       1 calls)

     Called by init_run:
     wfcinit      :      0.27s CPU      0.02s WALL (       1 calls)
     potinit      :      0.00s CPU      0.00s WALL (       1 calls)
     hinit0       :      0.01s CPU      0.01s WALL (       1 calls)

     Called by electrons:
     c_bands      :      2.46s CPU      0.21s WALL (       6 calls)
     sum_band     :      0.41s CPU      0.03s WALL (       6 calls)
     v_of_rho     :      0.15s CPU      0.01s WALL (       6 calls)
     mix_rho      :      0.01s CPU      0.00s WALL (       6 calls)

     Called by c_bands:
     init_us_2    :      0.23s CPU      0.01s WALL (     364 calls)
     cegterg      :      2.24s CPU      0.20s WALL (     168 calls)

     Called by *egterg:
     cdiaghg      :      0.37s CPU      0.04s WALL (     570 calls)
     h_psi        :      1.83s CPU      0.16s WALL (     626 calls)
     g_psi        :      0.01s CPU      0.00s WALL (     430 calls)

     Called by h_psi:
     h_psi:calbec :      0.08s CPU      0.01s WALL (     626 calls)
     vloc_psi     :      1.61s CPU      0.14s WALL (     626 calls)
     add_vuspsi   :      0.08s CPU      0.00s WALL (     626 calls)

     General routines
     calbec       :      0.08s CPU      0.00s WALL (     626 calls)
     fft          :      0.04s CPU      0.00s WALL (      60 calls)
     ffts         :      0.01s CPU      0.00s WALL (       6 calls)
     fftw         :      1.39s CPU      0.13s WALL (    5050 calls)


     PWSCF        :      3.37s CPU      0.32s WALL


   This run was terminated on:  21:18:56  19Feb2023            

=------------------------------------------------------------------------------=
   JOB DONE.
=------------------------------------------------------------------------------=
