
     Program PWSCF v.6.6 starts on 27Feb2023 at 20:30: 1 

     This program is part of the open-source Quantum ESPRESSO suite
     for quantum simulation of materials; please cite
         "P. Giannozzi et al., J. Phys.:Condens. Matter 21 395502 (2009);
         "P. Giannozzi et al., J. Phys.:Condens. Matter 29 465901 (2017);
          URL http://www.quantum-espresso.org", 
     in publications or presentations arising from this work. More details at
     http://www.quantum-espresso.org/quote

     Serial version
     Fft bands division:     nmany     =       1
     Waiting for input...
     Reading input from standard input

     Current dimensions of program PWSCF are:
     Max number of different atomic species (ntypx) = 10
     Max number of k-points (npk) =  40000
     Max angular momentum in pseudopotentials (lmaxx) =  3

     G-vector sticks info
     --------------------
     sticks:   dense  smooth     PW     G-vecs:    dense   smooth      PW
     Sum         349     349    121                 4279     4279     869



     bravais-lattice index     =            2
     lattice parameter (alat)  =      10.0000  a.u.
     unit-cell volume          =     250.0000 (a.u.)^3
     number of atoms/cell      =            2
     number of atomic types    =            1
     number of electrons       =         8.00
     number of Kohn-Sham states=            4
     kinetic-energy cutoff     =      25.0000  Ry
     charge density cutoff     =     100.0000  Ry
     convergence threshold     =      1.0E-06
     mixing beta               =       0.7000
     number of iterations used =            8  plain     mixing
     Exchange-correlation=  SLA  PW   PBE  PBE
                           (   1   4   3   4   0   0   0)

     celldm(1)=  10.000000  celldm(2)=   0.000000  celldm(3)=   0.000000
     celldm(4)=   0.000000  celldm(5)=   0.000000  celldm(6)=   0.000000

     crystal axes: (cart. coord. in units of alat)
               a(1) = (  -0.500000   0.000000   0.500000 )  
               a(2) = (   0.000000   0.500000   0.500000 )  
               a(3) = (  -0.500000   0.500000   0.000000 )  

     reciprocal axes: (cart. coord. in units 2 pi/alat)
               b(1) = ( -1.000000 -1.000000  1.000000 )  
               b(2) = (  1.000000  1.000000  1.000000 )  
               b(3) = ( -1.000000  1.000000 -1.000000 )  


     PseudoPot. # 1 for Si read from file:
     ../pseudo/Si.pbe-rrkj.UPF
     MD5 check sum: cf7ab5690cd9a85b22c4813f7e365554
     Pseudo is Norm-conserving, Zval =  4.0
     Generated by new atomic code, or converted to UPF format
     Using radial grid of  883 points,  3 beta functions with: 
                l(1) =   0
                l(2) =   0
                l(3) =   1

     atomic species   valence    mass     pseudopotential
        Si             4.00    28.08600     Si( 1.00)

     48 Sym. Ops., with inversion, found (24 have fractional translation)



   Cartesian axes

     site n.     atom                  positions (alat units)
         1           Si  tau(   1) = (   0.0000000   0.0000000   0.0000000  )
         2           Si  tau(   2) = (   0.2500000   0.2500000   0.2500000  )

     number of k points=    28
                       cart. coord. in units 2pi/alat
        k(    1) = (  -0.0833333   0.0833333   0.0833333), wk =   0.0185185
        k(    2) = (  -0.2500000   0.2500000  -0.0833333), wk =   0.0555556
        k(    3) = (  -0.4166667   0.4166667  -0.2500000), wk =   0.0555556
        k(    4) = (   0.4166667  -0.4166667   0.5833333), wk =   0.0555556
        k(    5) = (   0.2500000  -0.2500000   0.4166667), wk =   0.0555556
        k(    6) = (   0.0833333  -0.0833333   0.2500000), wk =   0.0555556
        k(    7) = (  -0.0833333   0.4166667   0.0833333), wk =   0.0555556
        k(    8) = (  -0.2500000   0.5833333  -0.0833333), wk =   0.1111111
        k(    9) = (   0.5833333  -0.2500000   0.7500000), wk =   0.1111111
        k(   10) = (   0.4166667  -0.0833333   0.5833333), wk =   0.1111111
        k(   11) = (   0.2500000   0.0833333   0.4166667), wk =   0.1111111
        k(   12) = (  -0.0833333   0.7500000   0.0833333), wk =   0.0555556
        k(   13) = (   0.7500000  -0.0833333   0.9166667), wk =   0.1111111
        k(   14) = (   0.5833333   0.0833333   0.7500000), wk =   0.1111111
        k(   15) = (   0.4166667   0.2500000   0.5833333), wk =   0.1111111
        k(   16) = (  -0.0833333  -0.9166667   0.0833333), wk =   0.0555556
        k(   17) = (  -0.2500000  -0.7500000  -0.0833333), wk =   0.1111111
        k(   18) = (  -0.0833333  -0.5833333   0.0833333), wk =   0.0555556
        k(   19) = (  -0.2500000   0.2500000   0.2500000), wk =   0.0185185
        k(   20) = (  -0.4166667   0.4166667   0.0833333), wk =   0.0555556
        k(   21) = (   0.4166667  -0.4166667   0.9166667), wk =   0.0555556
        k(   22) = (   0.2500000  -0.2500000   0.7500000), wk =   0.0555556
        k(   23) = (  -0.2500000   0.5833333   0.2500000), wk =   0.0555556
        k(   24) = (   0.5833333  -0.2500000   1.0833333), wk =   0.1111111
        k(   25) = (   0.4166667  -0.0833333   0.9166667), wk =   0.1111111
        k(   26) = (  -0.2500000  -1.0833333   0.2500000), wk =   0.0555556
        k(   27) = (  -0.4166667   0.4166667   0.4166667), wk =   0.0185185
        k(   28) = (   0.4166667  -0.4166667   1.2500000), wk =   0.0555556

     Dense  grid:     4279 G-vectors     FFT dimensions: (  24,  24,  24)

     Estimated max dynamical RAM per process >       4.01 MB

     Initial potential from superposition of free atoms

     starting charge    7.99889, renormalised to    8.00000
     Starting wfcs are    8 randomized atomic wfcs

     total cpu time spent up to now is        0.1 secs

     Self-consistent Calculation

     iteration #  1     ecut=    25.00 Ry     beta= 0.70
     Davidson diagonalization with overlap
     ethr =  1.00E-02,  avg # of iterations =  2.0

     Threshold (ethr) on eigenvalues was too large:
     Diagonalizing with lowered threshold

     Davidson diagonalization with overlap
     ethr =  6.78E-04,  avg # of iterations =  1.8

     total cpu time spent up to now is        0.3 secs

     total energy              =     -15.72921307 Ry
     estimated scf accuracy    <       0.06306852 Ry

     iteration #  2     ecut=    25.00 Ry     beta= 0.70
     Davidson diagonalization with overlap
     ethr =  7.88E-04,  avg # of iterations =  1.0

     total cpu time spent up to now is        0.4 secs

     total energy              =     -15.73164978 Ry
     estimated scf accuracy    <       0.00323098 Ry

     iteration #  3     ecut=    25.00 Ry     beta= 0.70
     Davidson diagonalization with overlap
     ethr =  4.04E-05,  avg # of iterations =  2.3

     total cpu time spent up to now is        0.5 secs

     total energy              =     -15.73243962 Ry
     estimated scf accuracy    <       0.00011586 Ry

     iteration #  4     ecut=    25.00 Ry     beta= 0.70
     Davidson diagonalization with overlap
     ethr =  1.45E-06,  avg # of iterations =  4.5

     total cpu time spent up to now is        0.7 secs

     total energy              =     -15.73251632 Ry
     estimated scf accuracy    <       0.00000648 Ry

     iteration #  5     ecut=    25.00 Ry     beta= 0.70
     Davidson diagonalization with overlap
     ethr =  8.10E-08,  avg # of iterations =  3.8

     total cpu time spent up to now is        0.8 secs

     End of self-consistent calculation

          k =-0.0833 0.0833 0.0833 (   534 PWs)   bands (ev):

    -5.2834   6.2103   6.9116   6.9116

          k =-0.2500 0.2500-0.0833 (   534 PWs)   bands (ev):

    -4.7721   4.0740   5.5858   6.7015

          k =-0.4167 0.4167-0.2500 (   527 PWs)   bands (ev):

    -3.5886   1.1258   5.1218   6.0222

          k = 0.4167-0.4167 0.5833 (   535 PWs)   bands (ev):

    -2.8058  -0.1283   5.2116   5.6085

          k = 0.2500-0.2500 0.4167 (   531 PWs)   bands (ev):

    -4.0379   2.0345   5.6590   5.7466

          k = 0.0833-0.0833 0.2500 (   535 PWs)   bands (ev):

    -5.0256   5.1380   6.2070   6.4522

          k =-0.0833 0.4167 0.0833 (   536 PWs)   bands (ev):

    -4.5141   3.9506   5.4225   5.4448

          k =-0.2500 0.5833-0.0833 (   529 PWs)   bands (ev):

    -3.5336   2.0195   4.0037   5.0162

          k = 0.5833-0.2500 0.7500 (   531 PWs)   bands (ev):

    -2.2983   0.0859   3.3927   4.7599

          k = 0.4167-0.0833 0.5833 (   528 PWs)   bands (ev):

    -3.1015   1.2610   3.3089   5.2979

          k = 0.2500 0.0833 0.4167 (   531 PWs)   bands (ev):

    -4.2706   3.0262   4.7562   6.0381

          k =-0.0833 0.7500 0.0833 (   529 PWs)   bands (ev):

    -2.7735   1.2030   3.9430   4.3248

          k = 0.7500-0.0833 0.9167 (   519 PWs)   bands (ev):

    -1.4755  -0.2213   3.0076   3.8689

          k = 0.5833 0.0833 0.7500 (   522 PWs)   bands (ev):

    -1.8486   0.0850   2.4973   4.4616

          k = 0.4167 0.2500 0.5833 (   530 PWs)   bands (ev):

    -2.9682   0.4491   4.3786   5.4086

          k =-0.0833-0.9167 0.0833 (   520 PWs)   bands (ev):

    -1.5872  -0.2365   3.6505   4.0957

          k =-0.2500-0.7500-0.0833 (   526 PWs)   bands (ev):

    -2.5850   0.9539   3.3789   4.2335

          k =-0.0833-0.5833 0.0833 (   530 PWs)   bands (ev):

    -3.7581   2.6348   4.5431   4.7746

          k =-0.2500 0.2500 0.2500 (   531 PWs)   bands (ev):

    -4.5247   3.0161   6.2602   6.2602

          k =-0.4167 0.4167 0.0833 (   526 PWs)   bands (ev):

    -3.7924   2.0894   3.9683   6.0874

          k = 0.4167-0.4167 0.9167 (   530 PWs)   bands (ev):

    -2.5063   0.5914   2.7570   5.2319

          k = 0.2500-0.2500 0.7500 (   529 PWs)   bands (ev):

    -2.4557   0.5093   3.2933   4.7077

          k =-0.2500 0.5833 0.2500 (   531 PWs)   bands (ev):

    -3.3323   1.2120   4.5206   5.1085

          k = 0.5833-0.2500 1.0833 (   526 PWs)   bands (ev):

    -2.2445   0.5139   2.8576   4.2214

          k = 0.4167-0.0833 0.9167 (   521 PWs)   bands (ev):

    -1.3420  -0.2296   2.6443   3.4876

          k =-0.2500-1.0833 0.2500 (   524 PWs)   bands (ev):

    -1.5654  -0.1591   2.5086   4.4991

          k =-0.4167 0.4167 0.4167 (   529 PWs)   bands (ev):

    -3.2205   0.3084   5.8561   5.8561

          k = 0.4167-0.4167 1.2500 (   527 PWs)   bands (ev):

    -2.5550   0.0108   3.9163   5.3716

     highest occupied level (ev):     6.9116

!    total energy              =     -15.73252003 Ry
     estimated scf accuracy    <       0.00000022 Ry

     The total energy is the sum of the following terms:
     one-electron contribution =       5.37313496 Ry
     hartree contribution      =       1.02877474 Ry
     xc contribution           =      -4.89667596 Ry
     ewald contribution        =     -17.23775376 Ry

     convergence has been achieved in   5 iterations

     Writing output data file ./tmp/Si_exc1.save/

     init_run     :      0.88s CPU      0.10s WALL (       1 calls)
     electrons    :      7.84s CPU      0.69s WALL (       1 calls)

     Called by init_run:
     wfcinit      :      0.85s CPU      0.07s WALL (       1 calls)
     potinit      :      0.01s CPU      0.01s WALL (       1 calls)
     hinit0       :      0.02s CPU      0.02s WALL (       1 calls)

     Called by electrons:
     c_bands      :      6.79s CPU      0.57s WALL (       6 calls)
     sum_band     :      0.91s CPU      0.10s WALL (       6 calls)
     v_of_rho     :      0.13s CPU      0.03s WALL (       6 calls)
     mix_rho      :      0.00s CPU      0.00s WALL (       6 calls)

     Called by c_bands:
     init_us_2    :      0.23s CPU      0.03s WALL (     364 calls)
     cegterg      :      6.54s CPU      0.55s WALL (     168 calls)

     Called by *egterg:
     cdiaghg      :      0.25s CPU      0.03s WALL (     569 calls)
     h_psi        :      6.71s CPU      0.56s WALL (     625 calls)
     g_psi        :      0.04s CPU      0.00s WALL (     429 calls)

     Called by h_psi:
     h_psi:calbec :      0.20s CPU      0.01s WALL (     625 calls)
     vloc_psi     :      6.35s CPU      0.54s WALL (     625 calls)
     add_vuspsi   :      0.12s CPU      0.01s WALL (     625 calls)

     General routines
     calbec       :      0.18s CPU      0.01s WALL (     625 calls)
     fft          :      0.04s CPU      0.01s WALL (      60 calls)
     ffts         :      0.00s CPU      0.00s WALL (       6 calls)
     fftw         :      6.35s CPU      0.55s WALL (    5092 calls)


     PWSCF        :      8.73s CPU      0.82s WALL


   This run was terminated on:  20:30: 1  27Feb2023            

=------------------------------------------------------------------------------=
   JOB DONE.
=------------------------------------------------------------------------------=
