
     Program PWSCF v.6.6 starts on 27Feb2023 at 20:29:59 

     This program is part of the open-source Quantum ESPRESSO suite
     for quantum simulation of materials; please cite
         "P. Giannozzi et al., J. Phys.:Condens. Matter 21 395502 (2009);
         "P. Giannozzi et al., J. Phys.:Condens. Matter 29 465901 (2017);
          URL http://www.quantum-espresso.org", 
     in publications or presentations arising from this work. More details at
     http://www.quantum-espresso.org/quote

     Serial version
     Fft bands division:     nmany     =       1
     Waiting for input...
     Reading input from standard input

     Current dimensions of program PWSCF are:
     Max number of different atomic species (ntypx) = 10
     Max number of k-points (npk) =  40000
     Max angular momentum in pseudopotentials (lmaxx) =  3

     G-vector sticks info
     --------------------
     sticks:   dense  smooth     PW     G-vecs:    dense   smooth      PW
     Sum         139     139     55                 1067     1067     283



     bravais-lattice index     =            2
     lattice parameter (alat)  =      10.0000  a.u.
     unit-cell volume          =     250.0000 (a.u.)^3
     number of atoms/cell      =            2
     number of atomic types    =            1
     number of electrons       =         8.00
     number of Kohn-Sham states=            4
     kinetic-energy cutoff     =      10.0000  Ry
     charge density cutoff     =      40.0000  Ry
     convergence threshold     =      1.0E-06
     mixing beta               =       0.7000
     number of iterations used =            8  plain     mixing
     Exchange-correlation=  SLA  PW   PBE  PBE
                           (   1   4   3   4   0   0   0)

     celldm(1)=  10.000000  celldm(2)=   0.000000  celldm(3)=   0.000000
     celldm(4)=   0.000000  celldm(5)=   0.000000  celldm(6)=   0.000000

     crystal axes: (cart. coord. in units of alat)
               a(1) = (  -0.500000   0.000000   0.500000 )  
               a(2) = (   0.000000   0.500000   0.500000 )  
               a(3) = (  -0.500000   0.500000   0.000000 )  

     reciprocal axes: (cart. coord. in units 2 pi/alat)
               b(1) = ( -1.000000 -1.000000  1.000000 )  
               b(2) = (  1.000000  1.000000  1.000000 )  
               b(3) = ( -1.000000  1.000000 -1.000000 )  


     PseudoPot. # 1 for Si read from file:
     ../pseudo/Si.pbe-rrkj.UPF
     MD5 check sum: cf7ab5690cd9a85b22c4813f7e365554
     Pseudo is Norm-conserving, Zval =  4.0
     Generated by new atomic code, or converted to UPF format
     Using radial grid of  883 points,  3 beta functions with: 
                l(1) =   0
                l(2) =   0
                l(3) =   1

     atomic species   valence    mass     pseudopotential
        Si             4.00    28.08600     Si( 1.00)

     48 Sym. Ops., with inversion, found (24 have fractional translation)



   Cartesian axes

     site n.     atom                  positions (alat units)
         1           Si  tau(   1) = (   0.0000000   0.0000000   0.0000000  )
         2           Si  tau(   2) = (   0.2500000   0.2500000   0.2500000  )

     number of k points=    28
                       cart. coord. in units 2pi/alat
        k(    1) = (  -0.0833333   0.0833333   0.0833333), wk =   0.0185185
        k(    2) = (  -0.2500000   0.2500000  -0.0833333), wk =   0.0555556
        k(    3) = (  -0.4166667   0.4166667  -0.2500000), wk =   0.0555556
        k(    4) = (   0.4166667  -0.4166667   0.5833333), wk =   0.0555556
        k(    5) = (   0.2500000  -0.2500000   0.4166667), wk =   0.0555556
        k(    6) = (   0.0833333  -0.0833333   0.2500000), wk =   0.0555556
        k(    7) = (  -0.0833333   0.4166667   0.0833333), wk =   0.0555556
        k(    8) = (  -0.2500000   0.5833333  -0.0833333), wk =   0.1111111
        k(    9) = (   0.5833333  -0.2500000   0.7500000), wk =   0.1111111
        k(   10) = (   0.4166667  -0.0833333   0.5833333), wk =   0.1111111
        k(   11) = (   0.2500000   0.0833333   0.4166667), wk =   0.1111111
        k(   12) = (  -0.0833333   0.7500000   0.0833333), wk =   0.0555556
        k(   13) = (   0.7500000  -0.0833333   0.9166667), wk =   0.1111111
        k(   14) = (   0.5833333   0.0833333   0.7500000), wk =   0.1111111
        k(   15) = (   0.4166667   0.2500000   0.5833333), wk =   0.1111111
        k(   16) = (  -0.0833333  -0.9166667   0.0833333), wk =   0.0555556
        k(   17) = (  -0.2500000  -0.7500000  -0.0833333), wk =   0.1111111
        k(   18) = (  -0.0833333  -0.5833333   0.0833333), wk =   0.0555556
        k(   19) = (  -0.2500000   0.2500000   0.2500000), wk =   0.0185185
        k(   20) = (  -0.4166667   0.4166667   0.0833333), wk =   0.0555556
        k(   21) = (   0.4166667  -0.4166667   0.9166667), wk =   0.0555556
        k(   22) = (   0.2500000  -0.2500000   0.7500000), wk =   0.0555556
        k(   23) = (  -0.2500000   0.5833333   0.2500000), wk =   0.0555556
        k(   24) = (   0.5833333  -0.2500000   1.0833333), wk =   0.1111111
        k(   25) = (   0.4166667  -0.0833333   0.9166667), wk =   0.1111111
        k(   26) = (  -0.2500000  -1.0833333   0.2500000), wk =   0.0555556
        k(   27) = (  -0.4166667   0.4166667   0.4166667), wk =   0.0185185
        k(   28) = (   0.4166667  -0.4166667   1.2500000), wk =   0.0555556

     Dense  grid:     1067 G-vectors     FFT dimensions: (  16,  16,  16)

     Estimated max dynamical RAM per process >       1.11 MB

     Initial potential from superposition of free atoms

     starting charge    7.99889, renormalised to    8.00000
     Starting wfcs are    8 randomized atomic wfcs

     total cpu time spent up to now is        0.0 secs

     Self-consistent Calculation

     iteration #  1     ecut=    10.00 Ry     beta= 0.70
     Davidson diagonalization with overlap
     ethr =  1.00E-02,  avg # of iterations =  2.0

     Threshold (ethr) on eigenvalues was too large:
     Diagonalizing with lowered threshold

     Davidson diagonalization with overlap
     ethr =  6.69E-04,  avg # of iterations =  1.8

     total cpu time spent up to now is        0.1 secs

     total energy              =     -15.68329522 Ry
     estimated scf accuracy    <       0.06065471 Ry

     iteration #  2     ecut=    10.00 Ry     beta= 0.70
     Davidson diagonalization with overlap
     ethr =  7.58E-04,  avg # of iterations =  1.0

     total cpu time spent up to now is        0.1 secs

     total energy              =     -15.68522017 Ry
     estimated scf accuracy    <       0.00314535 Ry

     iteration #  3     ecut=    10.00 Ry     beta= 0.70
     Davidson diagonalization with overlap
     ethr =  3.93E-05,  avg # of iterations =  2.0

     total cpu time spent up to now is        0.1 secs

     total energy              =     -15.68574843 Ry
     estimated scf accuracy    <       0.00006898 Ry

     iteration #  4     ecut=    10.00 Ry     beta= 0.70
     Davidson diagonalization with overlap
     ethr =  8.62E-07,  avg # of iterations =  4.7

     total cpu time spent up to now is        0.2 secs

     End of self-consistent calculation

          k =-0.0833 0.0833 0.0833 (   134 PWs)   bands (ev):

    -5.2125   6.2737   6.9537   6.9537

          k =-0.2500 0.2500-0.0833 (   140 PWs)   bands (ev):

    -4.7054   4.1249   5.6232   6.7421

          k =-0.4167 0.4167-0.2500 (   138 PWs)   bands (ev):

    -3.5192   1.1754   5.1587   6.0546

          k = 0.4167-0.4167 0.5833 (   131 PWs)   bands (ev):

    -2.7206  -0.0690   5.2636   5.6386

          k = 0.2500-0.2500 0.4167 (   140 PWs)   bands (ev):

    -3.9689   2.0808   5.6866   5.7912

          k = 0.0833-0.0833 0.2500 (   134 PWs)   bands (ev):

    -4.9433   5.2007   6.2492   6.5031

          k =-0.0833 0.4167 0.0833 (   134 PWs)   bands (ev):

    -4.4309   4.0174   5.4564   5.4858

          k =-0.2500 0.5833-0.0833 (   136 PWs)   bands (ev):

    -3.4640   2.0873   4.0368   5.0447

          k = 0.5833-0.2500 0.7500 (   132 PWs)   bands (ev):

    -2.2114   0.1568   3.4356   4.7853

          k = 0.4167-0.0833 0.5833 (   134 PWs)   bands (ev):

    -3.0261   1.3331   3.3421   5.3278

          k = 0.2500 0.0833 0.4167 (   137 PWs)   bands (ev):

    -4.1965   3.0855   4.7917   6.0776

          k =-0.0833 0.7500 0.0833 (   131 PWs)   bands (ev):

    -2.6901   1.2856   3.9677   4.3473

          k = 0.7500-0.0833 0.9167 (   129 PWs)   bands (ev):

    -1.3835  -0.1259   3.0313   3.8935

          k = 0.5833 0.0833 0.7500 (   131 PWs)   bands (ev):

    -1.7628   0.1796   2.5240   4.4875

          k = 0.4167 0.2500 0.5833 (   135 PWs)   bands (ev):

    -2.8937   0.5053   4.4250   5.4361

          k =-0.0833-0.9167 0.0833 (   129 PWs)   bands (ev):

    -1.4986  -0.1439   3.6732   4.1169

          k =-0.2500-0.7500-0.0833 (   131 PWs)   bands (ev):

    -2.5052   1.0425   3.4056   4.2584

          k =-0.0833-0.5833 0.0833 (   133 PWs)   bands (ev):

    -3.6741   2.7086   4.5746   4.8020

          k =-0.2500 0.2500 0.2500 (   138 PWs)   bands (ev):

    -4.4504   3.0731   6.2993   6.2993

          k =-0.4167 0.4167 0.0833 (   136 PWs)   bands (ev):

    -3.7189   2.1496   4.0022   6.1197

          k = 0.4167-0.4167 0.9167 (   131 PWs)   bands (ev):

    -2.4181   0.6705   2.7895   5.2587

          k = 0.2500-0.2500 0.7500 (   132 PWs)   bands (ev):

    -2.3821   0.5928   3.3297   4.7319

          k =-0.2500 0.5833 0.2500 (   136 PWs)   bands (ev):

    -3.2580   1.2687   4.5637   5.1364

          k = 0.5833-0.2500 1.0833 (   132 PWs)   bands (ev):

    -2.1639   0.6016   2.8872   4.2461

          k = 0.4167-0.0833 0.9167 (   130 PWs)   bands (ev):

    -1.2528  -0.1252   2.6662   3.5122

          k =-0.2500-1.0833 0.2500 (   130 PWs)   bands (ev):

    -1.4708  -0.0666   2.5304   4.5224

          k =-0.4167 0.4167 0.4167 (   135 PWs)   bands (ev):

    -3.1637   0.3608   5.8837   5.8837

          k = 0.4167-0.4167 1.2500 (   131 PWs)   bands (ev):

    -2.4657   0.0755   3.9699   5.4001

     highest occupied level (ev):     6.9537

!    total energy              =     -15.68580978 Ry
     estimated scf accuracy    <       0.00000010 Ry

     The total energy is the sum of the following terms:
     one-electron contribution =       5.42555454 Ry
     hartree contribution      =       1.01286134 Ry
     xc contribution           =      -4.88647191 Ry
     ewald contribution        =     -17.23775375 Ry

     convergence has been achieved in   4 iterations

     Writing output data file ./tmp/Si_exc1.save/

     init_run     :      0.18s CPU      0.03s WALL (       1 calls)
     electrons    :      1.40s CPU      0.12s WALL (       1 calls)

     Called by init_run:
     wfcinit      :      0.17s CPU      0.02s WALL (       1 calls)
     potinit      :      0.00s CPU      0.00s WALL (       1 calls)
     hinit0       :      0.02s CPU      0.02s WALL (       1 calls)

     Called by electrons:
     c_bands      :      1.16s CPU      0.10s WALL (       5 calls)
     sum_band     :      0.19s CPU      0.02s WALL (       5 calls)
     v_of_rho     :      0.05s CPU      0.01s WALL (       5 calls)
     mix_rho      :      0.00s CPU      0.00s WALL (       5 calls)

     Called by c_bands:
     init_us_2    :      0.07s CPU      0.01s WALL (     308 calls)
     cegterg      :      1.10s CPU      0.09s WALL (     140 calls)

     Called by *egterg:
     cdiaghg      :      0.19s CPU      0.02s WALL (     433 calls)
     h_psi        :      0.91s CPU      0.07s WALL (     489 calls)
     g_psi        :      0.01s CPU      0.00s WALL (     321 calls)

     Called by h_psi:
     h_psi:calbec :      0.05s CPU      0.00s WALL (     489 calls)
     vloc_psi     :      0.80s CPU      0.06s WALL (     489 calls)
     add_vuspsi   :      0.04s CPU      0.00s WALL (     489 calls)

     General routines
     calbec       :      0.03s CPU      0.00s WALL (     489 calls)
     fft          :      0.00s CPU      0.00s WALL (      50 calls)
     ffts         :      0.00s CPU      0.00s WALL (       5 calls)
     fftw         :      0.59s CPU      0.06s WALL (    4150 calls)


     PWSCF        :      1.69s CPU      0.18s WALL


   This run was terminated on:  20:29:59  27Feb2023            

=------------------------------------------------------------------------------=
   JOB DONE.
=------------------------------------------------------------------------------=
