
     Program PWSCF v.6.6 starts on 19Feb2023 at 21:18:58 

     This program is part of the open-source Quantum ESPRESSO suite
     for quantum simulation of materials; please cite
         "P. Giannozzi et al., J. Phys.:Condens. Matter 21 395502 (2009);
         "P. Giannozzi et al., J. Phys.:Condens. Matter 29 465901 (2017);
          URL http://www.quantum-espresso.org", 
     in publications or presentations arising from this work. More details at
     http://www.quantum-espresso.org/quote

     Serial version
     Fft bands division:     nmany     =       1
     Waiting for input...
     Reading input from standard input

     Current dimensions of program PWSCF are:
     Max number of different atomic species (ntypx) = 10
     Max number of k-points (npk) =  40000
     Max angular momentum in pseudopotentials (lmaxx) =  3

     G-vector sticks info
     --------------------
     sticks:   dense  smooth     PW     G-vecs:    dense   smooth      PW
     Sum         421     421    139                 5577     5577    1067



     bravais-lattice index     =            2
     lattice parameter (alat)  =      10.0000  a.u.
     unit-cell volume          =     250.0000 (a.u.)^3
     number of atoms/cell      =            2
     number of atomic types    =            1
     number of electrons       =         8.00
     number of Kohn-Sham states=            4
     kinetic-energy cutoff     =      30.0000  Ry
     charge density cutoff     =     120.0000  Ry
     convergence threshold     =      1.0E-06
     mixing beta               =       0.7000
     number of iterations used =            8  plain     mixing
     Exchange-correlation=  SLA  PW   PBE  PBE
                           (   1   4   3   4   0   0   0)

     celldm(1)=  10.000000  celldm(2)=   0.000000  celldm(3)=   0.000000
     celldm(4)=   0.000000  celldm(5)=   0.000000  celldm(6)=   0.000000

     crystal axes: (cart. coord. in units of alat)
               a(1) = (  -0.500000   0.000000   0.500000 )  
               a(2) = (   0.000000   0.500000   0.500000 )  
               a(3) = (  -0.500000   0.500000   0.000000 )  

     reciprocal axes: (cart. coord. in units 2 pi/alat)
               b(1) = ( -1.000000 -1.000000  1.000000 )  
               b(2) = (  1.000000  1.000000  1.000000 )  
               b(3) = ( -1.000000  1.000000 -1.000000 )  


     PseudoPot. # 1 for Si read from file:
     ./Si.pbe-rrkj.UPF
     MD5 check sum: cf7ab5690cd9a85b22c4813f7e365554
     Pseudo is Norm-conserving, Zval =  4.0
     Generated by new atomic code, or converted to UPF format
     Using radial grid of  883 points,  3 beta functions with: 
                l(1) =   0
                l(2) =   0
                l(3) =   1

     atomic species   valence    mass     pseudopotential
        Si             4.00    28.08600     Si( 1.00)

     48 Sym. Ops., with inversion, found (24 have fractional translation)



   Cartesian axes

     site n.     atom                  positions (alat units)
         1           Si  tau(   1) = (   0.0000000   0.0000000   0.0000000  )
         2           Si  tau(   2) = (   0.2500000   0.2500000   0.2500000  )

     number of k points=    28
                       cart. coord. in units 2pi/alat
        k(    1) = (  -0.0833333   0.0833333   0.0833333), wk =   0.0185185
        k(    2) = (  -0.2500000   0.2500000  -0.0833333), wk =   0.0555556
        k(    3) = (  -0.4166667   0.4166667  -0.2500000), wk =   0.0555556
        k(    4) = (   0.4166667  -0.4166667   0.5833333), wk =   0.0555556
        k(    5) = (   0.2500000  -0.2500000   0.4166667), wk =   0.0555556
        k(    6) = (   0.0833333  -0.0833333   0.2500000), wk =   0.0555556
        k(    7) = (  -0.0833333   0.4166667   0.0833333), wk =   0.0555556
        k(    8) = (  -0.2500000   0.5833333  -0.0833333), wk =   0.1111111
        k(    9) = (   0.5833333  -0.2500000   0.7500000), wk =   0.1111111
        k(   10) = (   0.4166667  -0.0833333   0.5833333), wk =   0.1111111
        k(   11) = (   0.2500000   0.0833333   0.4166667), wk =   0.1111111
        k(   12) = (  -0.0833333   0.7500000   0.0833333), wk =   0.0555556
        k(   13) = (   0.7500000  -0.0833333   0.9166667), wk =   0.1111111
        k(   14) = (   0.5833333   0.0833333   0.7500000), wk =   0.1111111
        k(   15) = (   0.4166667   0.2500000   0.5833333), wk =   0.1111111
        k(   16) = (  -0.0833333  -0.9166667   0.0833333), wk =   0.0555556
        k(   17) = (  -0.2500000  -0.7500000  -0.0833333), wk =   0.1111111
        k(   18) = (  -0.0833333  -0.5833333   0.0833333), wk =   0.0555556
        k(   19) = (  -0.2500000   0.2500000   0.2500000), wk =   0.0185185
        k(   20) = (  -0.4166667   0.4166667   0.0833333), wk =   0.0555556
        k(   21) = (   0.4166667  -0.4166667   0.9166667), wk =   0.0555556
        k(   22) = (   0.2500000  -0.2500000   0.7500000), wk =   0.0555556
        k(   23) = (  -0.2500000   0.5833333   0.2500000), wk =   0.0555556
        k(   24) = (   0.5833333  -0.2500000   1.0833333), wk =   0.1111111
        k(   25) = (   0.4166667  -0.0833333   0.9166667), wk =   0.1111111
        k(   26) = (  -0.2500000  -1.0833333   0.2500000), wk =   0.0555556
        k(   27) = (  -0.4166667   0.4166667   0.4166667), wk =   0.0185185
        k(   28) = (   0.4166667  -0.4166667   1.2500000), wk =   0.0555556

     Dense  grid:     5577 G-vectors     FFT dimensions: (  32,  32,  32)

     Estimated max dynamical RAM per process >       6.23 MB

     Initial potential from superposition of free atoms

     starting charge    7.99889, renormalised to    8.00000
     Starting wfcs are    8 randomized atomic wfcs

     total cpu time spent up to now is        0.1 secs

     Self-consistent Calculation

     iteration #  1     ecut=    30.00 Ry     beta= 0.70
     Davidson diagonalization with overlap
     ethr =  1.00E-02,  avg # of iterations =  2.0

     Threshold (ethr) on eigenvalues was too large:
     Diagonalizing with lowered threshold

     Davidson diagonalization with overlap
     ethr =  6.77E-04,  avg # of iterations =  1.9

     total cpu time spent up to now is        0.4 secs

     total energy              =     -15.72930208 Ry
     estimated scf accuracy    <       0.06305536 Ry

     iteration #  2     ecut=    30.00 Ry     beta= 0.70
     Davidson diagonalization with overlap
     ethr =  7.88E-04,  avg # of iterations =  1.0

     total cpu time spent up to now is        0.5 secs

     total energy              =     -15.73174648 Ry
     estimated scf accuracy    <       0.00323108 Ry

     iteration #  3     ecut=    30.00 Ry     beta= 0.70
     Davidson diagonalization with overlap
     ethr =  4.04E-05,  avg # of iterations =  2.3

     total cpu time spent up to now is        0.7 secs

     total energy              =     -15.73253915 Ry
     estimated scf accuracy    <       0.00011598 Ry

     iteration #  4     ecut=    30.00 Ry     beta= 0.70
     Davidson diagonalization with overlap
     ethr =  1.45E-06,  avg # of iterations =  4.4

     total cpu time spent up to now is        0.9 secs

     total energy              =     -15.73261602 Ry
     estimated scf accuracy    <       0.00000641 Ry

     iteration #  5     ecut=    30.00 Ry     beta= 0.70
     Davidson diagonalization with overlap
     ethr =  8.01E-08,  avg # of iterations =  3.9

     total cpu time spent up to now is        1.1 secs

     End of self-consistent calculation

          k =-0.0833 0.0833 0.0833 (   700 PWs)   bands (ev):

    -5.2835   6.2103   6.9116   6.9116

          k =-0.2500 0.2500-0.0833 (   688 PWs)   bands (ev):

    -4.7722   4.0740   5.5858   6.7015

          k =-0.4167 0.4167-0.2500 (   690 PWs)   bands (ev):

    -3.5888   1.1257   5.1218   6.0222

          k = 0.4167-0.4167 0.5833 (   695 PWs)   bands (ev):

    -2.8061  -0.1284   5.2116   5.6085

          k = 0.2500-0.2500 0.4167 (   695 PWs)   bands (ev):

    -4.0381   2.0344   5.6590   5.7465

          k = 0.0833-0.0833 0.2500 (   687 PWs)   bands (ev):

    -5.0257   5.1379   6.2070   6.4522

          k =-0.0833 0.4167 0.0833 (   688 PWs)   bands (ev):

    -4.5142   3.9506   5.4225   5.4448

          k =-0.2500 0.5833-0.0833 (   689 PWs)   bands (ev):

    -3.5338   2.0194   4.0036   5.0162

          k = 0.5833-0.2500 0.7500 (   695 PWs)   bands (ev):

    -2.2985   0.0858   3.3927   4.7599

          k = 0.4167-0.0833 0.5833 (   692 PWs)   bands (ev):

    -3.1017   1.2609   3.3089   5.2979

          k = 0.2500 0.0833 0.4167 (   692 PWs)   bands (ev):

    -4.2707   3.0261   4.7562   6.0381

          k =-0.0833 0.7500 0.0833 (   690 PWs)   bands (ev):

    -2.7737   1.2028   3.9430   4.3248

          k = 0.7500-0.0833 0.9167 (   695 PWs)   bands (ev):

    -1.4757  -0.2215   3.0077   3.8689

          k = 0.5833 0.0833 0.7500 (   698 PWs)   bands (ev):

    -1.8488   0.0848   2.4973   4.4616

          k = 0.4167 0.2500 0.5833 (   694 PWs)   bands (ev):

    -2.9684   0.4490   4.3786   5.4087

          k =-0.0833-0.9167 0.0833 (   698 PWs)   bands (ev):

    -1.5874  -0.2367   3.6505   4.0957

          k =-0.2500-0.7500-0.0833 (   694 PWs)   bands (ev):

    -2.5852   0.9538   3.3789   4.2335

          k =-0.0833-0.5833 0.0833 (   692 PWs)   bands (ev):

    -3.7583   2.6347   4.5431   4.7746

          k =-0.2500 0.2500 0.2500 (   691 PWs)   bands (ev):

    -4.5248   3.0160   6.2602   6.2602

          k =-0.4167 0.4167 0.0833 (   688 PWs)   bands (ev):

    -3.7926   2.0893   3.9683   6.0874

          k = 0.4167-0.4167 0.9167 (   690 PWs)   bands (ev):

    -2.5065   0.5913   2.7570   5.2319

          k = 0.2500-0.2500 0.7500 (   697 PWs)   bands (ev):

    -2.4559   0.5092   3.2933   4.7077

          k =-0.2500 0.5833 0.2500 (   694 PWs)   bands (ev):

    -3.3325   1.2119   4.5206   5.1085

          k = 0.5833-0.2500 1.0833 (   695 PWs)   bands (ev):

    -2.2447   0.5138   2.8576   4.2214

          k = 0.4167-0.0833 0.9167 (   700 PWs)   bands (ev):

    -1.3422  -0.2298   2.6443   3.4876

          k =-0.2500-1.0833 0.2500 (   699 PWs)   bands (ev):

    -1.5656  -0.1593   2.5086   4.4992

          k =-0.4167 0.4167 0.4167 (   685 PWs)   bands (ev):

    -3.2207   0.3083   5.8561   5.8561

          k = 0.4167-0.4167 1.2500 (   694 PWs)   bands (ev):

    -2.5552   0.0107   3.9162   5.3716

     highest occupied level (ev):     6.9116

!    total energy              =     -15.73261992 Ry
     estimated scf accuracy    <       0.00000023 Ry

     The total energy is the sum of the following terms:
     one-electron contribution =       5.37295623 Ry
     hartree contribution      =       1.02879541 Ry
     xc contribution           =      -4.89661779 Ry
     ewald contribution        =     -17.23775378 Ry

     convergence has been achieved in   5 iterations

     Writing output data file ./output/Si_exc1.save/

     init_run     :      1.12s CPU      0.13s WALL (       1 calls)
     electrons    :     10.28s CPU      0.94s WALL (       1 calls)

     Called by init_run:
     wfcinit      :      1.09s CPU      0.09s WALL (       1 calls)
     potinit      :      0.01s CPU      0.01s WALL (       1 calls)
     hinit0       :      0.02s CPU      0.02s WALL (       1 calls)

     Called by electrons:
     c_bands      :      9.03s CPU      0.76s WALL (       6 calls)
     sum_band     :      0.93s CPU      0.12s WALL (       6 calls)
     v_of_rho     :      0.31s CPU      0.06s WALL (       6 calls)
     mix_rho      :      0.01s CPU      0.00s WALL (       6 calls)

     Called by c_bands:
     init_us_2    :      0.30s CPU      0.03s WALL (     364 calls)
     cegterg      :      8.68s CPU      0.74s WALL (     168 calls)

     Called by *egterg:
     cdiaghg      :      0.35s CPU      0.03s WALL (     573 calls)
     h_psi        :      8.67s CPU      0.74s WALL (     629 calls)
     g_psi        :      0.09s CPU      0.00s WALL (     433 calls)

     Called by h_psi:
     h_psi:calbec :      0.18s CPU      0.01s WALL (     629 calls)
     vloc_psi     :      8.24s CPU      0.71s WALL (     629 calls)
     add_vuspsi   :      0.18s CPU      0.01s WALL (     629 calls)

     General routines
     calbec       :      0.17s CPU      0.01s WALL (     629 calls)
     fft          :      0.04s CPU      0.01s WALL (      60 calls)
     ffts         :      0.00s CPU      0.00s WALL (       6 calls)
     fftw         :      7.32s CPU      0.67s WALL (    5126 calls)


     PWSCF        :     11.41s CPU      1.09s WALL


   This run was terminated on:  21:18:59  19Feb2023            

=------------------------------------------------------------------------------=
   JOB DONE.
=------------------------------------------------------------------------------=
