
     Program PWSCF v.6.6 starts on 27Feb2023 at 20:30: 0 

     This program is part of the open-source Quantum ESPRESSO suite
     for quantum simulation of materials; please cite
         "P. Giannozzi et al., J. Phys.:Condens. Matter 21 395502 (2009);
         "P. Giannozzi et al., J. Phys.:Condens. Matter 29 465901 (2017);
          URL http://www.quantum-espresso.org", 
     in publications or presentations arising from this work. More details at
     http://www.quantum-espresso.org/quote

     Serial version
     Fft bands division:     nmany     =       1
     Waiting for input...
     Reading input from standard input

     Current dimensions of program PWSCF are:
     Max number of different atomic species (ntypx) = 10
     Max number of k-points (npk) =  40000
     Max angular momentum in pseudopotentials (lmaxx) =  3

     G-vector sticks info
     --------------------
     sticks:   dense  smooth     PW     G-vecs:    dense   smooth      PW
     Sum         271     271     97                 2975     2975     645



     bravais-lattice index     =            2
     lattice parameter (alat)  =      10.0000  a.u.
     unit-cell volume          =     250.0000 (a.u.)^3
     number of atoms/cell      =            2
     number of atomic types    =            1
     number of electrons       =         8.00
     number of Kohn-Sham states=            4
     kinetic-energy cutoff     =      20.0000  Ry
     charge density cutoff     =      80.0000  Ry
     convergence threshold     =      1.0E-06
     mixing beta               =       0.7000
     number of iterations used =            8  plain     mixing
     Exchange-correlation=  SLA  PW   PBE  PBE
                           (   1   4   3   4   0   0   0)

     celldm(1)=  10.000000  celldm(2)=   0.000000  celldm(3)=   0.000000
     celldm(4)=   0.000000  celldm(5)=   0.000000  celldm(6)=   0.000000

     crystal axes: (cart. coord. in units of alat)
               a(1) = (  -0.500000   0.000000   0.500000 )  
               a(2) = (   0.000000   0.500000   0.500000 )  
               a(3) = (  -0.500000   0.500000   0.000000 )  

     reciprocal axes: (cart. coord. in units 2 pi/alat)
               b(1) = ( -1.000000 -1.000000  1.000000 )  
               b(2) = (  1.000000  1.000000  1.000000 )  
               b(3) = ( -1.000000  1.000000 -1.000000 )  


     PseudoPot. # 1 for Si read from file:
     ../pseudo/Si.pbe-rrkj.UPF
     MD5 check sum: cf7ab5690cd9a85b22c4813f7e365554
     Pseudo is Norm-conserving, Zval =  4.0
     Generated by new atomic code, or converted to UPF format
     Using radial grid of  883 points,  3 beta functions with: 
                l(1) =   0
                l(2) =   0
                l(3) =   1

     atomic species   valence    mass     pseudopotential
        Si             4.00    28.08600     Si( 1.00)

     48 Sym. Ops., with inversion, found (24 have fractional translation)



   Cartesian axes

     site n.     atom                  positions (alat units)
         1           Si  tau(   1) = (   0.0000000   0.0000000   0.0000000  )
         2           Si  tau(   2) = (   0.2500000   0.2500000   0.2500000  )

     number of k points=    28
                       cart. coord. in units 2pi/alat
        k(    1) = (  -0.0833333   0.0833333   0.0833333), wk =   0.0185185
        k(    2) = (  -0.2500000   0.2500000  -0.0833333), wk =   0.0555556
        k(    3) = (  -0.4166667   0.4166667  -0.2500000), wk =   0.0555556
        k(    4) = (   0.4166667  -0.4166667   0.5833333), wk =   0.0555556
        k(    5) = (   0.2500000  -0.2500000   0.4166667), wk =   0.0555556
        k(    6) = (   0.0833333  -0.0833333   0.2500000), wk =   0.0555556
        k(    7) = (  -0.0833333   0.4166667   0.0833333), wk =   0.0555556
        k(    8) = (  -0.2500000   0.5833333  -0.0833333), wk =   0.1111111
        k(    9) = (   0.5833333  -0.2500000   0.7500000), wk =   0.1111111
        k(   10) = (   0.4166667  -0.0833333   0.5833333), wk =   0.1111111
        k(   11) = (   0.2500000   0.0833333   0.4166667), wk =   0.1111111
        k(   12) = (  -0.0833333   0.7500000   0.0833333), wk =   0.0555556
        k(   13) = (   0.7500000  -0.0833333   0.9166667), wk =   0.1111111
        k(   14) = (   0.5833333   0.0833333   0.7500000), wk =   0.1111111
        k(   15) = (   0.4166667   0.2500000   0.5833333), wk =   0.1111111
        k(   16) = (  -0.0833333  -0.9166667   0.0833333), wk =   0.0555556
        k(   17) = (  -0.2500000  -0.7500000  -0.0833333), wk =   0.1111111
        k(   18) = (  -0.0833333  -0.5833333   0.0833333), wk =   0.0555556
        k(   19) = (  -0.2500000   0.2500000   0.2500000), wk =   0.0185185
        k(   20) = (  -0.4166667   0.4166667   0.0833333), wk =   0.0555556
        k(   21) = (   0.4166667  -0.4166667   0.9166667), wk =   0.0555556
        k(   22) = (   0.2500000  -0.2500000   0.7500000), wk =   0.0555556
        k(   23) = (  -0.2500000   0.5833333   0.2500000), wk =   0.0555556
        k(   24) = (   0.5833333  -0.2500000   1.0833333), wk =   0.1111111
        k(   25) = (   0.4166667  -0.0833333   0.9166667), wk =   0.1111111
        k(   26) = (  -0.2500000  -1.0833333   0.2500000), wk =   0.0555556
        k(   27) = (  -0.4166667   0.4166667   0.4166667), wk =   0.0185185
        k(   28) = (   0.4166667  -0.4166667   1.2500000), wk =   0.0555556

     Dense  grid:     2975 G-vectors     FFT dimensions: (  24,  24,  24)

     Estimated max dynamical RAM per process >       3.13 MB

     Initial potential from superposition of free atoms

     starting charge    7.99889, renormalised to    8.00000
     Starting wfcs are    8 randomized atomic wfcs

     total cpu time spent up to now is        0.1 secs

     Self-consistent Calculation

     iteration #  1     ecut=    20.00 Ry     beta= 0.70
     Davidson diagonalization with overlap
     ethr =  1.00E-02,  avg # of iterations =  2.0

     Threshold (ethr) on eigenvalues was too large:
     Diagonalizing with lowered threshold

     Davidson diagonalization with overlap
     ethr =  6.79E-04,  avg # of iterations =  1.6

     total cpu time spent up to now is        0.3 secs

     total energy              =     -15.72867729 Ry
     estimated scf accuracy    <       0.06285728 Ry

     iteration #  2     ecut=    20.00 Ry     beta= 0.70
     Davidson diagonalization with overlap
     ethr =  7.86E-04,  avg # of iterations =  1.0

     total cpu time spent up to now is        0.4 secs

     total energy              =     -15.73107303 Ry
     estimated scf accuracy    <       0.00323613 Ry

     iteration #  3     ecut=    20.00 Ry     beta= 0.70
     Davidson diagonalization with overlap
     ethr =  4.05E-05,  avg # of iterations =  2.5

     total cpu time spent up to now is        0.5 secs

     total energy              =     -15.73189927 Ry
     estimated scf accuracy    <       0.00012375 Ry

     iteration #  4     ecut=    20.00 Ry     beta= 0.70
     Davidson diagonalization with overlap
     ethr =  1.55E-06,  avg # of iterations =  4.2

     total cpu time spent up to now is        0.6 secs

     total energy              =     -15.73196590 Ry
     estimated scf accuracy    <       0.00001243 Ry

     iteration #  5     ecut=    20.00 Ry     beta= 0.70
     Davidson diagonalization with overlap
     ethr =  1.55E-07,  avg # of iterations =  3.4

     total cpu time spent up to now is        0.8 secs

     End of self-consistent calculation

          k =-0.0833 0.0833 0.0833 (   363 PWs)   bands (ev):

    -5.2826   6.2115   6.9139   6.9139

          k =-0.2500 0.2500-0.0833 (   366 PWs)   bands (ev):

    -4.7712   4.0749   5.5873   6.7035

          k =-0.4167 0.4167-0.2500 (   374 PWs)   bands (ev):

    -3.5880   1.1265   5.1231   6.0241

          k = 0.4167-0.4167 0.5833 (   378 PWs)   bands (ev):

    -2.8053  -0.1279   5.2130   5.6101

          k = 0.2500-0.2500 0.4167 (   375 PWs)   bands (ev):

    -4.0373   2.0352   5.6605   5.7479

          k = 0.0833-0.0833 0.2500 (   370 PWs)   bands (ev):

    -5.0247   5.1390   6.2086   6.4537

          k =-0.0833 0.4167 0.0833 (   368 PWs)   bands (ev):

    -4.5133   3.9515   5.4241   5.4461

          k =-0.2500 0.5833-0.0833 (   376 PWs)   bands (ev):

    -3.5329   2.0203   4.0047   5.0177

          k = 0.5833-0.2500 0.7500 (   378 PWs)   bands (ev):

    -2.2977   0.0865   3.3936   4.7612

          k = 0.4167-0.0833 0.5833 (   381 PWs)   bands (ev):

    -3.1009   1.2617   3.3097   5.2991

          k = 0.2500 0.0833 0.4167 (   375 PWs)   bands (ev):

    -4.2698   3.0270   4.7574   6.0395

          k =-0.0833 0.7500 0.0833 (   375 PWs)   bands (ev):

    -2.7730   1.2036   3.9443   4.3262

          k = 0.7500-0.0833 0.9167 (   378 PWs)   bands (ev):

    -1.4750  -0.2208   3.0085   3.8701

          k = 0.5833 0.0833 0.7500 (   382 PWs)   bands (ev):

    -1.8481   0.0856   2.4980   4.4628

          k = 0.4167 0.2500 0.5833 (   377 PWs)   bands (ev):

    -2.9676   0.4497   4.3798   5.4102

          k =-0.0833-0.9167 0.0833 (   375 PWs)   bands (ev):

    -1.5867  -0.2359   3.6519   4.0970

          k =-0.2500-0.7500-0.0833 (   384 PWs)   bands (ev):

    -2.5845   0.9546   3.3798   4.2347

          k =-0.0833-0.5833 0.0833 (   370 PWs)   bands (ev):

    -3.7574   2.6357   4.5446   4.7762

          k =-0.2500 0.2500 0.2500 (   368 PWs)   bands (ev):

    -4.5239   3.0168   6.2622   6.2622

          k =-0.4167 0.4167 0.0833 (   375 PWs)   bands (ev):

    -3.7918   2.0903   3.9694   6.0891

          k = 0.4167-0.4167 0.9167 (   382 PWs)   bands (ev):

    -2.5057   0.5920   2.7578   5.2331

          k = 0.2500-0.2500 0.7500 (   377 PWs)   bands (ev):

    -2.4551   0.5100   3.2942   4.7089

          k =-0.2500 0.5833 0.2500 (   378 PWs)   bands (ev):

    -3.3317   1.2127   4.5217   5.1100

          k = 0.5833-0.2500 1.0833 (   383 PWs)   bands (ev):

    -2.2440   0.5145   2.8583   4.2225

          k = 0.4167-0.0833 0.9167 (   383 PWs)   bands (ev):

    -1.3415  -0.2291   2.6450   3.4886

          k =-0.2500-1.0833 0.2500 (   382 PWs)   bands (ev):

    -1.5648  -0.1586   2.5092   4.5006

          k =-0.4167 0.4167 0.4167 (   374 PWs)   bands (ev):

    -3.2199   0.3088   5.8582   5.8582

          k = 0.4167-0.4167 1.2500 (   379 PWs)   bands (ev):

    -2.5545   0.0113   3.9172   5.3730

     highest occupied level (ev):     6.9139

!    total energy              =     -15.73197009 Ry
     estimated scf accuracy    <       0.00000024 Ry

     The total energy is the sum of the following terms:
     one-electron contribution =       5.37350608 Ry
     hartree contribution      =       1.02872237 Ry
     xc contribution           =      -4.89644477 Ry
     ewald contribution        =     -17.23775378 Ry

     convergence has been achieved in   5 iterations

     Writing output data file ./tmp/Si_exc1.save/

     init_run     :      0.77s CPU      0.09s WALL (       1 calls)
     electrons    :      7.42s CPU      0.65s WALL (       1 calls)

     Called by init_run:
     wfcinit      :      0.74s CPU      0.07s WALL (       1 calls)
     potinit      :      0.00s CPU      0.01s WALL (       1 calls)
     hinit0       :      0.02s CPU      0.02s WALL (       1 calls)

     Called by electrons:
     c_bands      :      6.37s CPU      0.54s WALL (       6 calls)
     sum_band     :      0.91s CPU      0.09s WALL (       6 calls)
     v_of_rho     :      0.14s CPU      0.03s WALL (       6 calls)
     mix_rho      :      0.00s CPU      0.00s WALL (       6 calls)

     Called by c_bands:
     init_us_2    :      0.23s CPU      0.02s WALL (     364 calls)
     cegterg      :      6.14s CPU      0.52s WALL (     168 calls)

     Called by *egterg:
     cdiaghg      :      0.31s CPU      0.03s WALL (     552 calls)
     h_psi        :      6.27s CPU      0.53s WALL (     608 calls)
     g_psi        :      0.01s CPU      0.00s WALL (     412 calls)

     Called by h_psi:
     h_psi:calbec :      0.05s CPU      0.01s WALL (     608 calls)
     vloc_psi     :      6.06s CPU      0.51s WALL (     608 calls)
     add_vuspsi   :      0.08s CPU      0.00s WALL (     608 calls)

     General routines
     calbec       :      0.05s CPU      0.01s WALL (     608 calls)
     fft          :      0.03s CPU      0.01s WALL (      60 calls)
     ffts         :      0.00s CPU      0.00s WALL (       6 calls)
     fftw         :      6.13s CPU      0.52s WALL (    5012 calls)


     PWSCF        :      8.20s CPU      0.76s WALL


   This run was terminated on:  20:30: 1  27Feb2023            

=------------------------------------------------------------------------------=
   JOB DONE.
=------------------------------------------------------------------------------=
