
     Program PWSCF v.6.6 starts on 27Feb2023 at 20:32:12 

     This program is part of the open-source Quantum ESPRESSO suite
     for quantum simulation of materials; please cite
         "P. Giannozzi et al., J. Phys.:Condens. Matter 21 395502 (2009);
         "P. Giannozzi et al., J. Phys.:Condens. Matter 29 465901 (2017);
          URL http://www.quantum-espresso.org", 
     in publications or presentations arising from this work. More details at
     http://www.quantum-espresso.org/quote

     Serial version
     Fft bands division:     nmany     =       1
     Waiting for input...
     Reading input from standard input

     Current dimensions of program PWSCF are:
     Max number of different atomic species (ntypx) = 10
     Max number of k-points (npk) =  40000
     Max angular momentum in pseudopotentials (lmaxx) =  3

     G-vector sticks info
     --------------------
     sticks:   dense  smooth     PW     G-vecs:    dense   smooth      PW
     Sum         271     271     91                 2975     2975     609



     bravais-lattice index     =            2
     lattice parameter (alat)  =      10.0000  a.u.
     unit-cell volume          =     250.0000 (a.u.)^3
     number of atoms/cell      =            2
     number of atomic types    =            1
     number of electrons       =         8.00
     number of Kohn-Sham states=            4
     kinetic-energy cutoff     =      20.0000  Ry
     charge density cutoff     =      80.0000  Ry
     convergence threshold     =      1.0E-06
     mixing beta               =       0.7000
     number of iterations used =            8  plain     mixing
     Exchange-correlation=  SLA  PW   PBE  PBE
                           (   1   4   3   4   0   0   0)

     celldm(1)=  10.000000  celldm(2)=   0.000000  celldm(3)=   0.000000
     celldm(4)=   0.000000  celldm(5)=   0.000000  celldm(6)=   0.000000

     crystal axes: (cart. coord. in units of alat)
               a(1) = (  -0.500000   0.000000   0.500000 )  
               a(2) = (   0.000000   0.500000   0.500000 )  
               a(3) = (  -0.500000   0.500000   0.000000 )  

     reciprocal axes: (cart. coord. in units 2 pi/alat)
               b(1) = ( -1.000000 -1.000000  1.000000 )  
               b(2) = (  1.000000  1.000000  1.000000 )  
               b(3) = ( -1.000000  1.000000 -1.000000 )  


     PseudoPot. # 1 for Si read from file:
     ../pseudo/Si.pbe-rrkj.UPF
     MD5 check sum: cf7ab5690cd9a85b22c4813f7e365554
     Pseudo is Norm-conserving, Zval =  4.0
     Generated by new atomic code, or converted to UPF format
     Using radial grid of  883 points,  3 beta functions with: 
                l(1) =   0
                l(2) =   0
                l(3) =   1

     atomic species   valence    mass     pseudopotential
        Si             4.00    28.08600     Si( 1.00)

     48 Sym. Ops., with inversion, found (24 have fractional translation)



   Cartesian axes

     site n.     atom                  positions (alat units)
         1           Si  tau(   1) = (   0.0000000   0.0000000   0.0000000  )
         2           Si  tau(   2) = (   0.2500000   0.2500000   0.2500000  )

     number of k points=     6
                       cart. coord. in units 2pi/alat
        k(    1) = (  -0.1666667   0.1666667   0.1666667), wk =   0.1481481
        k(    2) = (   0.5000000  -0.5000000   0.8333333), wk =   0.4444444
        k(    3) = (   0.1666667  -0.1666667   0.5000000), wk =   0.4444444
        k(    4) = (  -0.1666667  -1.1666667   0.1666667), wk =   0.4444444
        k(    5) = (  -0.5000000  -0.8333333  -0.1666667), wk =   0.4444444
        k(    6) = (   0.5000000  -0.5000000  -0.5000000), wk =   0.0740741

     Dense  grid:     2975 G-vectors     FFT dimensions: (  24,  24,  24)

     Estimated max dynamical RAM per process >       2.62 MB

     Initial potential from superposition of free atoms

     starting charge    7.99889, renormalised to    8.00000
     Starting wfcs are    8 randomized atomic wfcs

     total cpu time spent up to now is        0.1 secs

     Self-consistent Calculation

     iteration #  1     ecut=    20.00 Ry     beta= 0.70
     Davidson diagonalization with overlap
     ethr =  1.00E-02,  avg # of iterations =  2.0

     Threshold (ethr) on eigenvalues was too large:
     Diagonalizing with lowered threshold

     Davidson diagonalization with overlap
     ethr =  6.85E-04,  avg # of iterations =  2.0

     total cpu time spent up to now is        0.1 secs

     total energy              =     -15.72747769 Ry
     estimated scf accuracy    <       0.06379545 Ry

     iteration #  2     ecut=    20.00 Ry     beta= 0.70
     Davidson diagonalization with overlap
     ethr =  7.97E-04,  avg # of iterations =  1.0

     total cpu time spent up to now is        0.1 secs

     total energy              =     -15.72987990 Ry
     estimated scf accuracy    <       0.00322848 Ry

     iteration #  3     ecut=    20.00 Ry     beta= 0.70
     Davidson diagonalization with overlap
     ethr =  4.04E-05,  avg # of iterations =  2.2

     total cpu time spent up to now is        0.2 secs

     total energy              =     -15.73055701 Ry
     estimated scf accuracy    <       0.00009705 Ry

     iteration #  4     ecut=    20.00 Ry     beta= 0.70
     Davidson diagonalization with overlap
     ethr =  1.21E-06,  avg # of iterations =  4.3

     total cpu time spent up to now is        0.2 secs

     total energy              =     -15.73063054 Ry
     estimated scf accuracy    <       0.00000178 Ry

     iteration #  5     ecut=    20.00 Ry     beta= 0.70
     Davidson diagonalization with overlap
     ethr =  2.22E-08,  avg # of iterations =  5.7

     total cpu time spent up to now is        0.2 secs

     End of self-consistent calculation

          k =-0.1667 0.1667 0.1667 (   362 PWs)   bands (ev):

    -4.9891   4.6450   6.5929   6.5929

          k = 0.5000-0.5000 0.8333 (   383 PWs)   bands (ev):

    -3.1075   0.8520   3.8462   5.6971

          k = 0.1667-0.1667 0.5000 (   375 PWs)   bands (ev):

    -3.9847   2.5474   4.9877   5.1995

          k =-0.1667-1.1667 0.1667 (   376 PWs)   bands (ev):

    -2.0865   0.3890   3.1486   4.3392

          k =-0.5000-0.8333-0.1667 (   384 PWs)   bands (ev):

    -1.8358   0.0398   2.7723   4.0834

          k = 0.5000-0.5000-0.5000 (   368 PWs)   bands (ev):

    -2.8356  -0.2460   5.8125   5.8125

     highest occupied level (ev):     6.5929

!    total energy              =     -15.73063406 Ry
     estimated scf accuracy    <       0.00000029 Ry

     The total energy is the sum of the following terms:
     one-electron contribution =       5.37320610 Ry
     hartree contribution      =       1.03186287 Ry
     xc contribution           =      -4.89794926 Ry
     ewald contribution        =     -17.23775378 Ry

     convergence has been achieved in   5 iterations

     Writing output data file ./tmp/Si_exc1.save/

     init_run     :      0.25s CPU      0.05s WALL (       1 calls)
     electrons    :      2.11s CPU      0.18s WALL (       1 calls)

     Called by init_run:
     wfcinit      :      0.22s CPU      0.02s WALL (       1 calls)
     potinit      :      0.01s CPU      0.01s WALL (       1 calls)
     hinit0       :      0.02s CPU      0.02s WALL (       1 calls)

     Called by electrons:
     c_bands      :      1.46s CPU      0.12s WALL (       6 calls)
     sum_band     :      0.29s CPU      0.02s WALL (       6 calls)
     v_of_rho     :      0.34s CPU      0.03s WALL (       6 calls)
     mix_rho      :      0.02s CPU      0.00s WALL (       6 calls)

     Called by c_bands:
     init_us_2    :      0.05s CPU      0.00s WALL (      78 calls)
     cegterg      :      1.42s CPU      0.12s WALL (      36 calls)

     Called by *egterg:
     cdiaghg      :      0.12s CPU      0.02s WALL (     133 calls)
     h_psi        :      1.41s CPU      0.12s WALL (     145 calls)
     g_psi        :      0.02s CPU      0.00s WALL (     103 calls)

     Called by h_psi:
     h_psi:calbec :      0.02s CPU      0.00s WALL (     145 calls)
     vloc_psi     :      1.35s CPU      0.11s WALL (     145 calls)
     add_vuspsi   :      0.01s CPU      0.00s WALL (     145 calls)

     General routines
     calbec       :      0.02s CPU      0.00s WALL (     145 calls)
     fft          :      0.09s CPU      0.01s WALL (      60 calls)
     ffts         :      0.02s CPU      0.00s WALL (       6 calls)
     fftw         :      1.38s CPU      0.12s WALL (    1154 calls)


     PWSCF        :      2.40s CPU      0.24s WALL


   This run was terminated on:  20:32:12  27Feb2023            

=------------------------------------------------------------------------------=
   JOB DONE.
=------------------------------------------------------------------------------=
