
     Program PWSCF v.6.6 starts on 27Feb2023 at 20:32:12 

     This program is part of the open-source Quantum ESPRESSO suite
     for quantum simulation of materials; please cite
         "P. Giannozzi et al., J. Phys.:Condens. Matter 21 395502 (2009);
         "P. Giannozzi et al., J. Phys.:Condens. Matter 29 465901 (2017);
          URL http://www.quantum-espresso.org", 
     in publications or presentations arising from this work. More details at
     http://www.quantum-espresso.org/quote

     Serial version
     Fft bands division:     nmany     =       1
     Waiting for input...
     Reading input from standard input

     Current dimensions of program PWSCF are:
     Max number of different atomic species (ntypx) = 10
     Max number of k-points (npk) =  40000
     Max angular momentum in pseudopotentials (lmaxx) =  3

     G-vector sticks info
     --------------------
     sticks:   dense  smooth     PW     G-vecs:    dense   smooth      PW
     Sum         271     271     91                 2975     2975     609



     bravais-lattice index     =            2
     lattice parameter (alat)  =      10.0000  a.u.
     unit-cell volume          =     250.0000 (a.u.)^3
     number of atoms/cell      =            2
     number of atomic types    =            1
     number of electrons       =         8.00
     number of Kohn-Sham states=            4
     kinetic-energy cutoff     =      20.0000  Ry
     charge density cutoff     =      80.0000  Ry
     convergence threshold     =      1.0E-06
     mixing beta               =       0.7000
     number of iterations used =            8  plain     mixing
     Exchange-correlation=  SLA  PW   PBE  PBE
                           (   1   4   3   4   0   0   0)

     celldm(1)=  10.000000  celldm(2)=   0.000000  celldm(3)=   0.000000
     celldm(4)=   0.000000  celldm(5)=   0.000000  celldm(6)=   0.000000

     crystal axes: (cart. coord. in units of alat)
               a(1) = (  -0.500000   0.000000   0.500000 )  
               a(2) = (   0.000000   0.500000   0.500000 )  
               a(3) = (  -0.500000   0.500000   0.000000 )  

     reciprocal axes: (cart. coord. in units 2 pi/alat)
               b(1) = ( -1.000000 -1.000000  1.000000 )  
               b(2) = (  1.000000  1.000000  1.000000 )  
               b(3) = ( -1.000000  1.000000 -1.000000 )  


     PseudoPot. # 1 for Si read from file:
     ../pseudo/Si.pbe-rrkj.UPF
     MD5 check sum: cf7ab5690cd9a85b22c4813f7e365554
     Pseudo is Norm-conserving, Zval =  4.0
     Generated by new atomic code, or converted to UPF format
     Using radial grid of  883 points,  3 beta functions with: 
                l(1) =   0
                l(2) =   0
                l(3) =   1

     atomic species   valence    mass     pseudopotential
        Si             4.00    28.08600     Si( 1.00)

     48 Sym. Ops., with inversion, found (24 have fractional translation)



   Cartesian axes

     site n.     atom                  positions (alat units)
         1           Si  tau(   1) = (   0.0000000   0.0000000   0.0000000  )
         2           Si  tau(   2) = (   0.2500000   0.2500000   0.2500000  )

     number of k points=    10
                       cart. coord. in units 2pi/alat
        k(    1) = (  -0.1250000   0.1250000   0.1250000), wk =   0.0625000
        k(    2) = (  -0.3750000   0.3750000  -0.1250000), wk =   0.1875000
        k(    3) = (   0.3750000  -0.3750000   0.6250000), wk =   0.1875000
        k(    4) = (   0.1250000  -0.1250000   0.3750000), wk =   0.1875000
        k(    5) = (  -0.1250000   0.6250000   0.1250000), wk =   0.1875000
        k(    6) = (   0.6250000  -0.1250000   0.8750000), wk =   0.3750000
        k(    7) = (   0.3750000   0.1250000   0.6250000), wk =   0.3750000
        k(    8) = (  -0.1250000  -0.8750000   0.1250000), wk =   0.1875000
        k(    9) = (  -0.3750000   0.3750000   0.3750000), wk =   0.0625000
        k(   10) = (   0.3750000  -0.3750000   1.1250000), wk =   0.1875000

     Dense  grid:     2975 G-vectors     FFT dimensions: (  24,  24,  24)

     Estimated max dynamical RAM per process >       2.72 MB

     Initial potential from superposition of free atoms

     starting charge    7.99889, renormalised to    8.00000
     Starting wfcs are    8 randomized atomic wfcs

     total cpu time spent up to now is        0.1 secs

     Self-consistent Calculation

     iteration #  1     ecut=    20.00 Ry     beta= 0.70
     Davidson diagonalization with overlap
     ethr =  1.00E-02,  avg # of iterations =  2.0

     Threshold (ethr) on eigenvalues was too large:
     Diagonalizing with lowered threshold

     Davidson diagonalization with overlap
     ethr =  6.77E-04,  avg # of iterations =  1.9

     total cpu time spent up to now is        0.1 secs

     total energy              =     -15.72854959 Ry
     estimated scf accuracy    <       0.06321723 Ry

     iteration #  2     ecut=    20.00 Ry     beta= 0.70
     Davidson diagonalization with overlap
     ethr =  7.90E-04,  avg # of iterations =  1.0

     total cpu time spent up to now is        0.2 secs

     total energy              =     -15.73096022 Ry
     estimated scf accuracy    <       0.00320811 Ry

     iteration #  3     ecut=    20.00 Ry     beta= 0.70
     Davidson diagonalization with overlap
     ethr =  4.01E-05,  avg # of iterations =  2.3

     total cpu time spent up to now is        0.2 secs

     total energy              =     -15.73170372 Ry
     estimated scf accuracy    <       0.00010729 Ry

     iteration #  4     ecut=    20.00 Ry     beta= 0.70
     Davidson diagonalization with overlap
     ethr =  1.34E-06,  avg # of iterations =  4.5

     total cpu time spent up to now is        0.3 secs

     total energy              =     -15.73177537 Ry
     estimated scf accuracy    <       0.00000377 Ry

     iteration #  5     ecut=    20.00 Ry     beta= 0.70
     Davidson diagonalization with overlap
     ethr =  4.71E-08,  avg # of iterations =  4.5

     total cpu time spent up to now is        0.3 secs

     End of self-consistent calculation

          k =-0.1250 0.1250 0.1250 (   362 PWs)   bands (ev):

    -5.1611   5.4532   6.7594   6.7594

          k =-0.3750 0.3750-0.1250 (   372 PWs)   bands (ev):

    -4.0397   2.3114   4.6167   6.2579

          k = 0.3750-0.3750 0.6250 (   379 PWs)   bands (ev):

    -2.7569   0.0152   4.6895   5.4063

          k = 0.1250-0.1250 0.3750 (   370 PWs)   bands (ev):

    -4.5866   3.8025   5.6496   5.7853

          k =-0.1250 0.6250 0.1250 (   376 PWs)   bands (ev):

    -3.4630   2.0831   4.2104   4.7018

          k = 0.6250-0.1250 0.8750 (   382 PWs)   bands (ev):

    -1.6428  -0.0148   2.6822   3.8693

          k = 0.3750 0.1250 0.6250 (   378 PWs)   bands (ev):

    -2.9961   1.0687   3.5351   4.9983

          k =-0.1250-0.8750 0.1250 (   374 PWs)   bands (ev):

    -1.8559   0.1078   3.3599   4.1977

          k =-0.3750 0.3750 0.3750 (   368 PWs)   bands (ev):

    -3.5552   0.8696   5.9230   5.9230

          k = 0.3750-0.3750 1.1250 (   380 PWs)   bands (ev):

    -2.2201   0.2168   2.7944   5.0543

     highest occupied level (ev):     6.7594

!    total energy              =     -15.73177897 Ry
     estimated scf accuracy    <       0.00000027 Ry

     The total energy is the sum of the following terms:
     one-electron contribution =       5.37349247 Ry
     hartree contribution      =       1.02912409 Ry
     xc contribution           =      -4.89664175 Ry
     ewald contribution        =     -17.23775378 Ry

     convergence has been achieved in   5 iterations

     Writing output data file ./tmp/Si_exc1.save/

     init_run     :      0.26s CPU      0.05s WALL (       1 calls)
     electrons    :      3.04s CPU      0.26s WALL (       1 calls)

     Called by init_run:
     wfcinit      :      0.23s CPU      0.02s WALL (       1 calls)
     potinit      :      0.01s CPU      0.01s WALL (       1 calls)
     hinit0       :      0.02s CPU      0.02s WALL (       1 calls)

     Called by electrons:
     c_bands      :      2.24s CPU      0.19s WALL (       6 calls)
     sum_band     :      0.43s CPU      0.04s WALL (       6 calls)
     v_of_rho     :      0.33s CPU      0.03s WALL (       6 calls)
     mix_rho      :      0.02s CPU      0.00s WALL (       6 calls)

     Called by c_bands:
     init_us_2    :      0.05s CPU      0.01s WALL (     130 calls)
     cegterg      :      2.18s CPU      0.18s WALL (      60 calls)

     Called by *egterg:
     cdiaghg      :      0.08s CPU      0.01s WALL (     212 calls)
     h_psi        :      2.25s CPU      0.18s WALL (     232 calls)
     g_psi        :      0.01s CPU      0.00s WALL (     162 calls)

     Called by h_psi:
     h_psi:calbec :      0.03s CPU      0.00s WALL (     232 calls)
     vloc_psi     :      2.16s CPU      0.18s WALL (     232 calls)
     add_vuspsi   :      0.02s CPU      0.00s WALL (     232 calls)

     General routines
     calbec       :      0.01s CPU      0.00s WALL (     232 calls)
     fft          :      0.09s CPU      0.01s WALL (      60 calls)
     ffts         :      0.01s CPU      0.00s WALL (       6 calls)
     fftw         :      2.23s CPU      0.18s WALL (    1852 calls)


     PWSCF        :      3.32s CPU      0.32s WALL


   This run was terminated on:  20:32:12  27Feb2023            

=------------------------------------------------------------------------------=
   JOB DONE.
=------------------------------------------------------------------------------=
