
     Program PWSCF v.6.6 starts on 27Feb2023 at 13:11:13 

     This program is part of the open-source Quantum ESPRESSO suite
     for quantum simulation of materials; please cite
         "P. Giannozzi et al., J. Phys.:Condens. Matter 21 395502 (2009);
         "P. Giannozzi et al., J. Phys.:Condens. Matter 29 465901 (2017);
          URL http://www.quantum-espresso.org", 
     in publications or presentations arising from this work. More details at
     http://www.quantum-espresso.org/quote

     Serial version
     Fft bands division:     nmany     =       1
     Waiting for input...
     Reading input from standard input

     Current dimensions of program PWSCF are:
     Max number of different atomic species (ntypx) = 10
     Max number of k-points (npk) =  40000
     Max angular momentum in pseudopotentials (lmaxx) =  3

     G-vector sticks info
     --------------------
     sticks:   dense  smooth     PW     G-vecs:    dense   smooth      PW
     Sum         271     271     91                 2975     2975     609



     bravais-lattice index     =            2
     lattice parameter (alat)  =      10.0000  a.u.
     unit-cell volume          =     250.0000 (a.u.)^3
     number of atoms/cell      =            2
     number of atomic types    =            1
     number of electrons       =         8.00
     number of Kohn-Sham states=            4
     kinetic-energy cutoff     =      20.0000  Ry
     charge density cutoff     =      80.0000  Ry
     convergence threshold     =      1.0E-06
     mixing beta               =       0.7000
     number of iterations used =            8  plain     mixing
     Exchange-correlation=  SLA  PW   PBE  PBE
                           (   1   4   3   4   0   0   0)

     celldm(1)=  10.000000  celldm(2)=   0.000000  celldm(3)=   0.000000
     celldm(4)=   0.000000  celldm(5)=   0.000000  celldm(6)=   0.000000

     crystal axes: (cart. coord. in units of alat)
               a(1) = (  -0.500000   0.000000   0.500000 )  
               a(2) = (   0.000000   0.500000   0.500000 )  
               a(3) = (  -0.500000   0.500000   0.000000 )  

     reciprocal axes: (cart. coord. in units 2 pi/alat)
               b(1) = ( -1.000000 -1.000000  1.000000 )  
               b(2) = (  1.000000  1.000000  1.000000 )  
               b(3) = ( -1.000000  1.000000 -1.000000 )  


     PseudoPot. # 1 for Si read from file:
     ../pseudo/Si.pbe-rrkj.UPF
     MD5 check sum: cf7ab5690cd9a85b22c4813f7e365554
     Pseudo is Norm-conserving, Zval =  4.0
     Generated by new atomic code, or converted to UPF format
     Using radial grid of  883 points,  3 beta functions with: 
                l(1) =   0
                l(2) =   0
                l(3) =   1

     atomic species   valence    mass     pseudopotential
        Si             4.00    28.08600     Si( 1.00)

     48 Sym. Ops., with inversion, found (24 have fractional translation)



   Cartesian axes

     site n.     atom                  positions (alat units)
         1           Si  tau(   1) = (   0.0000000   0.0000000   0.0000000  )
         2           Si  tau(   2) = (   0.2500000   0.2500000   0.2500000  )

     number of k points=    19
                       cart. coord. in units 2pi/alat
        k(    1) = (  -0.1000000   0.1000000   0.1000000), wk =   0.0320000
        k(    2) = (  -0.3000000   0.3000000  -0.1000000), wk =   0.0960000
        k(    3) = (   0.5000000  -0.5000000   0.7000000), wk =   0.0960000
        k(    4) = (   0.3000000  -0.3000000   0.5000000), wk =   0.0960000
        k(    5) = (   0.1000000  -0.1000000   0.3000000), wk =   0.0960000
        k(    6) = (  -0.1000000   0.5000000   0.1000000), wk =   0.0960000
        k(    7) = (   0.7000000  -0.3000000   0.9000000), wk =   0.1920000
        k(    8) = (   0.5000000  -0.1000000   0.7000000), wk =   0.1920000
        k(    9) = (   0.3000000   0.1000000   0.5000000), wk =   0.1920000
        k(   10) = (  -0.1000000  -1.1000000   0.1000000), wk =   0.0960000
        k(   11) = (  -0.3000000  -0.9000000  -0.1000000), wk =   0.1920000
        k(   12) = (  -0.5000000  -0.7000000  -0.3000000), wk =   0.0960000
        k(   13) = (  -0.1000000  -0.7000000   0.1000000), wk =   0.0960000
        k(   14) = (  -0.3000000   0.3000000   0.3000000), wk =   0.0320000
        k(   15) = (   0.5000000  -0.5000000   1.1000000), wk =   0.0960000
        k(   16) = (   0.3000000  -0.3000000   0.9000000), wk =   0.0960000
        k(   17) = (  -0.3000000  -1.3000000   0.3000000), wk =   0.0960000
        k(   18) = (  -0.5000000  -1.1000000   0.1000000), wk =   0.0960000
        k(   19) = (   0.5000000  -0.5000000  -0.5000000), wk =   0.0160000

     Dense  grid:     2975 G-vectors     FFT dimensions: (  24,  24,  24)

     Estimated max dynamical RAM per process >       2.92 MB

     Initial potential from superposition of free atoms

     starting charge    7.99889, renormalised to    8.00000
     Starting wfcs are    8 randomized atomic wfcs

     total cpu time spent up to now is        0.1 secs

     Self-consistent Calculation

     iteration #  1     ecut=    20.00 Ry     beta= 0.70
     Davidson diagonalization with overlap
     ethr =  1.00E-02,  avg # of iterations =  2.0

     Threshold (ethr) on eigenvalues was too large:
     Diagonalizing with lowered threshold

     Davidson diagonalization with overlap
     ethr =  6.76E-04,  avg # of iterations =  1.8

     total cpu time spent up to now is        0.2 secs

     total energy              =     -15.72866029 Ry
     estimated scf accuracy    <       0.06301454 Ry

     iteration #  2     ecut=    20.00 Ry     beta= 0.70
     Davidson diagonalization with overlap
     ethr =  7.88E-04,  avg # of iterations =  1.0

     total cpu time spent up to now is        0.3 secs

     total energy              =     -15.73106895 Ry
     estimated scf accuracy    <       0.00323481 Ry

     iteration #  3     ecut=    20.00 Ry     beta= 0.70
     Davidson diagonalization with overlap
     ethr =  4.04E-05,  avg # of iterations =  2.5

     total cpu time spent up to now is        0.4 secs

     total energy              =     -15.73187030 Ry
     estimated scf accuracy    <       0.00012024 Ry

     iteration #  4     ecut=    20.00 Ry     beta= 0.70
     Davidson diagonalization with overlap
     ethr =  1.50E-06,  avg # of iterations =  4.0

     total cpu time spent up to now is        0.5 secs

     total energy              =     -15.73193776 Ry
     estimated scf accuracy    <       0.00000876 Ry

     iteration #  5     ecut=    20.00 Ry     beta= 0.70
     Davidson diagonalization with overlap
     ethr =  1.10E-07,  avg # of iterations =  3.6

     total cpu time spent up to now is        0.6 secs

     End of self-consistent calculation

          k =-0.1000 0.1000 0.1000 (   363 PWs)   bands (ev):

    -5.2398   5.9191   6.8555   6.8555

          k =-0.3000 0.3000-0.1000 (   372 PWs)   bands (ev):

    -4.5095   3.3442   5.1836   6.5450

          k = 0.5000-0.5000 0.7000 (   378 PWs)   bands (ev):

    -2.9784   0.1996   4.8630   5.7521

          k = 0.3000-0.3000 0.5000 (   377 PWs)   bands (ev):

    -3.5028   1.0567   5.3223   5.4915

          k = 0.1000-0.1000 0.3000 (   370 PWs)   bands (ev):

    -4.8697   4.6009   5.9759   6.2073

          k =-0.1000 0.5000 0.1000 (   368 PWs)   bands (ev):

    -4.1388   3.1877   4.9513   5.0956

          k = 0.7000-0.3000 0.9000 (   379 PWs)   bands (ev):

    -2.7842   1.0844   3.3983   4.4650

          k = 0.5000-0.1000 0.7000 (   379 PWs)   bands (ev):

    -2.2863   0.4160   2.7942   4.6688

          k = 0.3000 0.1000 0.5000 (   375 PWs)   bands (ev):

    -3.8025   2.1770   4.2266   5.6408

          k =-0.1000-1.1000 0.1000 (   375 PWs)   bands (ev):

    -1.6986  -0.0942   3.5326   4.1325

          k =-0.3000-0.9000-0.1000 (   383 PWs)   bands (ev):

    -1.5448  -0.1127   2.8242   3.8512

          k =-0.5000-0.7000-0.3000 (   380 PWs)   bands (ev):

    -2.4729  -0.0508   3.9590   5.0997

          k =-0.1000-0.7000 0.1000 (   379 PWs)   bands (ev):

    -3.0683   1.5973   3.9958   4.4600

          k =-0.3000 0.3000 0.3000 (   365 PWs)   bands (ev):

    -4.1650   2.0985   6.1011   6.1011

          k = 0.5000-0.5000 1.1000 (   380 PWs)   bands (ev):

    -3.1579   1.1914   3.3830   5.6703

          k = 0.3000-0.3000 0.9000 (   384 PWs)   bands (ev):

    -1.7782  -0.0217   2.4944   4.7029

          k =-0.3000-1.3000 0.3000 (   376 PWs)   bands (ev):

    -2.6081   0.3391   3.7582   4.9817

          k =-0.5000-1.1000 0.1000 (   378 PWs)   bands (ev):

    -1.4283  -0.1546   2.5936   3.5515

          k = 0.5000-0.5000-0.5000 (   368 PWs)   bands (ev):

    -2.8405  -0.2502   5.8074   5.8074

     highest occupied level (ev):     6.8555

!    total energy              =     -15.73194209 Ry
     estimated scf accuracy    <       0.00000029 Ry

     The total energy is the sum of the following terms:
     one-electron contribution =       5.37352620 Ry
     hartree contribution      =       1.02874562 Ry
     xc contribution           =      -4.89646013 Ry
     ewald contribution        =     -17.23775378 Ry

     convergence has been achieved in   5 iterations

     Writing output data file ./output/Si_exc1.save/

     init_run     :      0.53s CPU      0.07s WALL (       1 calls)
     electrons    :      5.70s CPU      0.49s WALL (       1 calls)

     Called by init_run:
     wfcinit      :      0.50s CPU      0.04s WALL (       1 calls)
     potinit      :      0.00s CPU      0.01s WALL (       1 calls)
     hinit0       :      0.02s CPU      0.02s WALL (       1 calls)

     Called by electrons:
     c_bands      :      4.61s CPU      0.39s WALL (       6 calls)
     sum_band     :      0.86s CPU      0.07s WALL (       6 calls)
     v_of_rho     :      0.19s CPU      0.03s WALL (       6 calls)
     mix_rho      :      0.02s CPU      0.00s WALL (       6 calls)

     Called by c_bands:
     init_us_2    :      0.17s CPU      0.01s WALL (     247 calls)
     cegterg      :      4.50s CPU      0.38s WALL (     114 calls)

     Called by *egterg:
     cdiaghg      :      0.22s CPU      0.03s WALL (     377 calls)
     h_psi        :      4.51s CPU      0.37s WALL (     415 calls)
     g_psi        :      0.01s CPU      0.00s WALL (     282 calls)

     Called by h_psi:
     h_psi:calbec :      0.06s CPU      0.01s WALL (     415 calls)
     vloc_psi     :      4.35s CPU      0.36s WALL (     415 calls)
     add_vuspsi   :      0.05s CPU      0.00s WALL (     415 calls)

     General routines
     calbec       :      0.06s CPU      0.01s WALL (     415 calls)
     fft          :      0.09s CPU      0.01s WALL (      60 calls)
     ffts         :      0.01s CPU      0.00s WALL (       6 calls)
     fftw         :      4.43s CPU      0.37s WALL (    3410 calls)


     PWSCF        :      6.24s CPU      0.58s WALL


   This run was terminated on:  13:11:13  27Feb2023            

=------------------------------------------------------------------------------=
   JOB DONE.
=------------------------------------------------------------------------------=
