<UPF version="2.0.1">
<PP_INFO>
Generated by new atomic code, or converted to UPF format
Author:
Generation date:
Pseudopotential type: NC
Element: Cl
Functional:  SLA  PW   GGX  GGC
Suggested minimum cutoff for wavefunctions:   0. Ry
Suggested minimum cutoff for charge density:   0. Ry
The Pseudo was generated with a Non-Relativistic Calculation
L component and cutoff radius for Local Potential:  0   0.0000
Valence configuration:
nl pn  l   occ       Rcut    Rcut US       E pseu
3S  0  0  2.00      1.830      0.000     0.000000
3P  0  1  5.00      1.830      0.000     0.000000
3D  0  2  0.00      0.000      0.000     0.000000
Generation configuration: not available.
</PP_INFO>
<!--
END OF HUMAN READABLE SECTION
-->
<PP_HEADER generated="Generated by new atomic code, or converted to UPF format" author="" date="" comment="" element="Cl" pseudo_type="NC" relativistic="no" is_ultrasoft="false" is_paw="false" is_coulomb="false" has_so="false" has_wfc="false" has_gipaw="false" paw_as_gipaw="false" core_correction="false" functional=" SLA  PW   GGX  GGC" z_valence="7.000000000000e0" total_psenergy="0.000000000000e0" wfc_cutoff="0.000000000000e0" rho_cutoff="0.000000000000e0" l_max="2" l_max_rho="0" l_local="0" mesh_size="175" number_of_wfc="3" number_of_proj="2"/>
<PP_MESH dx="6.249999999999e-2" mesh="175" xmin="-3.999999999997e0" rmax="5.692796268150e1" zmesh="1.700000000000e1">
<PP_R>
1.077390522870000e-3 1.146876241680000e-3 1.220843404340000e-3 1.299581039120000e-3
1.383396815060000e-3 1.472618244120000e-3 1.567593960960000e-3 1.668695085280000e-3
1.776316671900000e-3 1.890879254520000e-3 2.012830488920000e-3 2.142646902200000e-3
2.280835754810000e-3 2.427937022690000e-3 2.584525507260000e-3 2.751213081410000e-3
2.928651080460000e-3 3.117532847260001e-3 3.318596441400000e-3 3.532627523250000e-3
3.760462423920000e-3 4.002991413240001e-3 4.261162178490000e-3 4.535983527550000e-3
4.828529330820000e-3 5.139942717379999e-3 5.471440541800000e-3 5.824318139050000e-3
6.199954385990001e-3 6.599817089430000e-3 7.025468721569999e-3 7.478572525410000e-3
7.960899013919999e-3 8.474332888320001e-3 9.020880402640000e-3 9.602677203170000e-3
1.022199667360000e-2 1.088125881810000e-2 1.158303971790000e-2 1.233008159710000e-2
1.312530353810000e-2 1.397181288800000e-2 1.487291740030000e-2 1.583213816050000e-2
1.685322334470000e-2 1.794016286540000e-2 1.909720396230000e-2 2.032886779860000e-2
2.163996712770000e-2 2.303562509860000e-2 2.452129527520000e-2 2.610278294590000e-2
2.778626780830000e-2 2.957832811590000e-2 3.148596638350000e-2 3.351663674890000e-2
3.567827410070000e-2 3.797932508400001e-2 4.042878110539999e-2 4.303621346740000e-2
4.581181076890000e-2 4.876641871650000e-2 5.191158250500000e-2 5.525959193020000e-2
5.882352941180001e-2 6.261732111280000e-2 6.665579135690001e-2 7.095472055420000e-2
7.553090686400000e-2 8.040223183380000e-2 8.558773027169998e-2 9.110766462550000e-2
9.698360415880000e-2 1.032385092330000e-1 1.098968210250000e-1 1.169845570340000e-1
1.245294127420000e-1 1.325608698360000e-1 1.411103114100000e-1 1.502111445920000e-1
1.598989310860000e-1 1.702115261280000e-1 1.811892264070000e-1 1.928749275260000e-1
2.053142916150000e-1 2.185559257610000e-1 2.326515719370000e-1 2.476563091850000e-1
2.636287688430000e-1 2.806313636450000e-1 2.987305315990000e-1 3.179969955970000e-1
3.385060397650000e-1 3.603378036400000e-1 3.835775953140000e-1 4.083162247760000e-1
4.346503587610000e-1 4.626828984670000e-1 4.925233816550000e-1 5.242884106590000e-1
5.581021080210000e-1 5.940966014990000e-1 6.324125403570000e-1 6.731996449610000e-1
7.166172918060000e-1 7.628351362919999e-1 8.120337756510001e-1 8.644054546349999e-1
9.201548167169999e-1 9.794997037420000e-1 1.042672007140000e0 1.109918574070000e0
1.181502171950000e0 1.257702515240000e0 1.338817358440000e0 1.425163659570000e0
1.517078818660000e0 1.614921996200000e0 1.719075516540000e0 1.829946361820000e0
1.947967762280000e0 2.073600889090000e0 2.207336656450000e0 2.349697639750000e0
2.501240117650000e0 2.662556245660000e0 2.834276370060000e0 3.017071490980000e0
3.211655884300000e0 3.418789892790000e0 3.639282897080000e0 3.873996478380000e0
4.123847785100000e0 4.389813116660000e0 4.672931738370000e0 4.974309942390000e0
5.295125370620000e0 5.636631616300000e0 6.000163122510000e0 6.387140396520000e0
6.799075560420000e0 7.237578259830000e0 7.704361953580000e0 8.201250609080001e0
8.730185829560000e0 9.293234440890000e0 9.892596567760000e0 1.053061423070000e1
1.120978049760000e1 1.193274922530000e1 1.270234543000000e1 1.352157632550000e1
1.439364307440000e1 1.532195329630000e1 1.631013438370000e1 1.736204767570000e1
1.848180354620000e1 1.967377746580000e1 2.094262709830000e1 2.229331050130000e1
2.373110549960000e1 2.526163030830000e1 2.689086548640000e1 2.862517730580000e1
3.047134262750000e1 3.243657538280000e1 3.452855476130000e1 3.675545521780000e1
3.912597841440000e1 4.164938722180000e1 4.433554191500000e1 4.719493870160000e1
5.023875073680000e1 5.347887178230000e1 5.692796268150000e1
</PP_R>
<PP_RAB>
6.733690767920000e-5 7.167976510510000e-5 7.630271277099999e-5 8.122381494510000e-5
8.646230094120002e-5 9.203864025720002e-5 9.797462256009998e-5 1.042934428300000e-4
1.110197919940000e-4 1.181799534080000e-4 1.258019055580000e-4 1.339154313870000e-4
1.425522346750000e-4 1.517460639180000e-4 1.615328442040000e-4 1.719508175880000e-4
1.830406925290000e-4 1.948458029540000e-4 2.074122775870000e-4 2.207892202030000e-4
2.350289014950000e-4 2.501869633270000e-4 2.663226361550000e-4 2.834989704720000e-4
3.017830831760000e-4 3.212464198360000e-4 3.419650338629999e-4 3.640198836910000e-4
3.874971491250000e-4 4.124885680890000e-4 4.390917950980000e-4 4.674107828380000e-4
4.975561883699999e-4 5.296458055200000e-4 5.638050251650000e-4 6.001673251980000e-4
6.388747920970000e-4 6.800786761299999e-4 7.239399823680001e-4 7.706300998200000e-4
8.203314711340003e-4 8.732383054980000e-4 9.295573375170001e-4 9.895086350340002e-4
1.053326459040000e-3 1.121260179080000e-3 1.193575247640000e-3 1.270554237420000e-3
1.352497945480000e-3 1.439726568660000e-3 1.532580954700000e-3 1.631423934120000e-3
1.736641738020000e-3 1.848645507250000e-3 1.967872898970000e-3 2.094789796800000e-3
2.229892131300000e-3 2.373707817750001e-3 2.526798819080000e-3 2.689763341720000e-3
2.863238173060001e-3 3.047901169779999e-3 3.244473906560000e-3 3.453724495640000e-3
3.676470588240000e-3 3.913582569550000e-3 4.165986959800000e-3 4.434670034640000e-3
4.720681679000000e-3 5.025139489610000e-3 5.349233141980000e-3 5.694229039100000e-3
6.061475259929999e-3 6.452406827060000e-3 6.868551314090000e-3 7.311534814640000e-3
7.783088296370000e-3 8.285054364750000e-3 8.819394463109999e-3 9.388196536999999e-3
9.993683192860001e-3 1.063822038300000e-2 1.132432665040000e-2 1.205468297040000e-2
1.283214322600000e-2 1.365974536010000e-2 1.454072324600000e-2 1.547851932410000e-2
1.647679805270000e-2 1.753946022780000e-2 1.867065822490000e-2 1.987481222480000e-2
2.115662748530000e-2 2.252111272750000e-2 2.397359970710000e-2 2.551976404850000e-2
2.716564742250000e-2 2.891768115420001e-2 3.078271135340000e-2 3.276802566620000e-2
3.488138175130000e-2 3.713103759370000e-2 3.952578377229999e-2 4.207497781000000e-2
4.478858073790000e-2 4.767719601830000e-2 5.075211097820000e-2 5.402534091470001e-2
5.750967604480000e-2 6.121873148390000e-2 6.516700044660000e-2 6.936991087970000e-2
7.384388574700001e-2 7.860640720270000e-2 8.367608490269999e-2 8.907272872280000e-2
9.481742616620000e-2 1.009326247630000e-1 1.074422197840000e-1 1.143716476140000e-1
1.217479851420000e-1 1.296000555680000e-1 1.379585410280000e-1 1.468561024850000e-1
1.563275073530000e-1 1.664097653540000e-1 1.771422731290000e-1 1.885669681860000e-1
2.007284927690000e-1 2.136743682990000e-1 2.274551810680000e-1 2.421247798990000e-1
2.577404865690000e-1 2.743633197910000e-1 2.920582336480000e-1 3.108943714000000e-1
3.309453356640000e-1 3.522894760190000e-1 3.750101951570000e-1 3.991962747820000e-1
4.249422225260000e-1 4.523486412400000e-1 4.815226220990000e-1 5.125781630680000e-1
5.456366143480000e-1 5.808271525560000e-1 6.182872854850000e-1 6.581633894180000e-1
7.006112810979999e-1 7.457968265840000e-1 7.938965893770000e-1 8.450985203460000e-1
8.996026921480000e-1 9.576220810190000e-1 1.019383398980000e0 1.085127979730000e0
1.155112721640000e0 1.229611091610000e0 1.308914193640000e0 1.393331906330000e0
1.483194093720000e0 1.578851894270000e0 1.680679092900000e0 1.789073581610000e0
1.904458914220000e0 2.027285961430000e0 2.158034672580000e0 2.297215951110000e0
2.445373650900000e0 2.603086701370000e0 2.770971369690000e0 2.949683668850000e0
3.139921921050000e0 3.342429486390000e0 3.557997667590000e0
</PP_RAB>
</PP_MESH>
<PP_LOCAL columns="4">
-1.309571700000000e1 -1.309684200000000e1 -1.309811600000000e1 -1.309955900000000e1
-1.310119300000000e1 -1.310304200000000e1 -1.310513500000000e1 -1.310750400000000e1
-1.311018400000000e1 -1.311321600000000e1 -1.311664600000000e1 -1.312052400000000e1
-1.312490700000000e1 -1.312986100000000e1 -1.313545700000000e1 -1.314177600000000e1
-1.314890700000000e1 -1.315695200000000e1 -1.316602200000000e1 -1.317623900000000e1
-1.318774100000000e1 -1.320067700000000e1 -1.321521200000000e1 -1.323152500000000e1
-1.324980900000000e1 -1.327027100000000e1 -1.329313500000000e1 -1.331863100000000e1
-1.334700100000000e1 -1.337849000000000e1 -1.341334300000000e1 -1.345179300000000e1
-1.349405300000000e1 -1.354030400000000e1 -1.359067500000000e1 -1.364522300000000e1
-1.370391200000000e1 -1.376657800000000e1 -1.383290700000000e1 -1.390239300000000e1
-1.397430700000000e1 -1.404767000000000e1 -1.412122300000000e1 -1.419342600000000e1
-1.426245800000000e1 -1.432626800000000e1 -1.438264500000000e1 -1.442934800000000e1
-1.446427000000000e1 -1.448566600000000e1 -1.449239400000000e1 -1.448417700000000e1
-1.446182200000000e1 -1.442734500000000e1 -1.438395800000000e1 -1.433584500000000e1
-1.428773900000000e1 -1.424430200000000e1 -1.420943100000000e1 -1.418562800000000e1
-1.417361100000000e1 -1.417230300000000e1 -1.417923600000000e1 -1.419125300000000e1
-1.420530300000000e1 -1.421906300000000e1 -1.423120400000000e1 -1.424130400000000e1
-1.424951600000000e1 -1.425619300000000e1 -1.426161900000000e1 -1.426589400000000e1
-1.426894000000000e1 -1.427056400000000e1 -1.427051600000000e1 -1.426854000000000e1
-1.426440100000000e1 -1.425789900000000e1 -1.424888100000000e1 -1.423724300000000e1
-1.422293500000000e1 -1.420594900000000e1 -1.418632100000000e1 -1.416411900000000e1
-1.413943200000000e1 -1.411236000000000e1 -1.408300500000000e1 -1.405145900000000e1
-1.401779700000000e1 -1.398207800000000e1 -1.394433400000000e1 -1.390458200000000e1
-1.386281400000000e1 -1.381900600000000e1 -1.377311800000000e1 -1.372508400000000e1
-1.367481300000000e1 -1.362216600000000e1 -1.356693300000000e1 -1.350879700000000e1
-1.344727300000000e1 -1.338164800000000e1 -1.331107200000000e1 -1.323543700000000e1
-1.315610600000000e1 -1.306475300000000e1 -1.292542100000000e1 -1.274512600000000e1
-1.261023400000000e1 -1.243383000000000e1 -1.211450600000000e1 -1.179457800000000e1
-1.144148300000000e1 -1.098370300000000e1 -1.046798600000000e1 -9.904778500000001e0
-9.309899600000000e0 -8.713286800000001e0 -8.151900400000001e0 -7.649741400000000e0
-7.186751500000000e0 -6.751440800000000e0 -6.342442200000000e0 -5.958197600000000e0
-5.597219600000000e0 -5.258105200000000e0 -4.939533800000000e0 -4.640262700000000e0
-4.359123200000000e0 -4.095017000000000e0 -3.846912200000000e0 -3.613839600000000e0
-3.394888200000000e0 -3.189202300000000e0 -2.995978500000000e0 -2.814461500000000e0
-2.643941800000000e0 -2.483753300000000e0 -2.333270300000000e0 -2.191904600000000e0
-2.059103800000000e0 -1.934349000000000e0 -1.817152700000000e0 -1.707057000000000e0
-1.603631600000000e0 -1.506472500000000e0 -1.415199900000000e0 -1.329457300000000e0
-1.248909600000000e0 -1.173242000000000e0 -1.102158800000000e0 -1.035382400000000e0
-9.726517500000000e-1 -9.137217600000000e-1 -8.583621500000000e-1 -8.063566200000000e-1
-7.575019500000000e-1 -7.116072200000000e-1 -6.684931200000000e-1 -6.279911700000000e-1
-5.899431100000000e-1 -5.542002600000000e-1 -5.206229599999999e-1 -4.890800100000000e-1
-4.594481500000000e-1 -4.316116000000000e-1 -4.054615700000000e-1 -3.808959000000000e-1
-3.578185800000000e-1 -3.361394500000000e-1 -3.157737900000000e-1 -2.966420200000000e-1
-2.786693900000000e-1 -2.617856700000000e-1 -2.459248800000000e-1
</PP_LOCAL>
<PP_NONLOCAL>
<PP_BETA.1 index="1" label="3S" angular_momentum="0" cutoff_radius_index="148" cutoff_radius="1.830000000000e0" ultrasoft_cutoff_radius="0.000000000000e0">
3.759287669990000e-3 4.001740935820000e-3 4.259830967980000e-3 4.534566777740000e-3
4.827021711380000e-3 5.138338083780001e-3 5.469732078520000e-3 5.822500297960000e-3
6.198019423580000e-3 6.597757878550001e-3 7.023278012130001e-3 7.476241673370000e-3
7.958418222620001e-3 8.471693773869999e-3 9.018072731950001e-3 9.599690895399998e-3
1.021881863660000e-2 1.087787910220000e-2 1.157944627670000e-2 1.232625943430000e-2
1.312123978110000e-2 1.396749159590000e-2 1.486832464480000e-2 1.582725851870000e-2
1.684804036650000e-2 1.793465463150000e-2 1.909135875460000e-2 2.032266330870000e-2
2.163338406590000e-2 2.302864051770000e-2 2.451389251620000e-2 2.609494147210000e-2
2.777796315780000e-2 2.956954211890000e-2 3.147668160640000e-2 3.350683112770000e-2
3.566793701770000e-2 3.796843044310000e-2 4.041732466300000e-2 4.302419060570000e-2
4.579921253750000e-2 4.875325740340000e-2 5.189786046580000e-2 5.524535003800000e-2
5.880879358120001e-2 6.260215167920000e-2 6.664026188790000e-2 7.093895238019999e-2
7.551502064830000e-2 8.038642372729999e-2 8.557221648640001e-2 9.109272565569999e-2
9.696961996880001e-2 1.032259251460000e-1 1.098862136110000e-1 1.169765941500000e-1
1.245249686720000e-1 1.325609853400000e-1 1.411162623830000e-1 1.502244943330000e-1
1.599215816360000e-1 1.702457724440000e-1 1.812378918250000e-1 1.929413712750000e-1
2.054025564390000e-1 2.186709797960000e-1 2.327993229000000e-1 2.478438311930000e-1
2.638645646230000e-1 2.809255847330000e-1 2.990953135930000e-1 3.184467463580000e-1
3.390578025680000e-1 3.610118471850000e-1 3.843976883100000e-1 4.093102381240000e-1
4.358508612120000e-1 4.641275188400000e-1 4.942553765660000e-1 5.263569199550000e-1
5.605626006630001e-1 5.970101360240000e-1 6.358452960110000e-1 6.772210676940000e-1
7.212968550990000e-1 7.682373223870000e-1 8.182100235889999e-1 8.713819167910000e-1
9.279138899479999e-1 9.879541861740000e-1 1.051626175050000e0 1.119015033360000e0
1.190144429680000e0 1.264948877370000e0 1.343233435280000e0 1.424618231380000e0
1.508468211840000e0 1.593795343660000e0 1.679135202410000e0 1.762390786770000e0
1.840638911090000e0 1.909906960830000e0 1.964933033530000e0 1.998949102680000e0
2.003560705220000e0 1.968865072780000e0 1.884004158940000e0 1.738463662790000e0
1.524434946260000e0 1.240474652260000e0 8.962317107090000e-1 5.171002786459999e-1
1.461831904200000e-1 -1.603069184470000e-1 -3.476112171580000e-1 -3.859395559710000e-1
-2.934687988660000e-1 -1.417260488100000e-1 -2.706187285790000e-2 0.000000000000000e0
0.000000000000000e0 0.000000000000000e0 0.000000000000000e0 0.000000000000000e0
0.000000000000000e0 0.000000000000000e0 0.000000000000000e0 0.000000000000000e0
0.000000000000000e0 0.000000000000000e0 0.000000000000000e0 0.000000000000000e0
0.000000000000000e0 0.000000000000000e0 0.000000000000000e0 0.000000000000000e0
0.000000000000000e0 0.000000000000000e0 0.000000000000000e0 0.000000000000000e0
0.000000000000000e0 0.000000000000000e0 0.000000000000000e0 0.000000000000000e0
0.000000000000000e0 0.000000000000000e0 0.000000000000000e0 0.000000000000000e0
0.000000000000000e0 0.000000000000000e0 0.000000000000000e0 0.000000000000000e0
0.000000000000000e0 0.000000000000000e0 0.000000000000000e0 0.000000000000000e0
0.000000000000000e0 0.000000000000000e0 0.000000000000000e0 0.000000000000000e0
0.000000000000000e0 0.000000000000000e0 0.000000000000000e0 0.000000000000000e0
0.000000000000000e0 0.000000000000000e0 0.000000000000000e0 0.000000000000000e0
0.000000000000000e0 0.000000000000000e0 0.000000000000000e0 0.000000000000000e0
0.000000000000000e0 0.000000000000000e0 0.000000000000000e0
</PP_BETA.1>
<PP_BETA.2 index="2" label="3P" angular_momentum="2" cutoff_radius_index="148" cutoff_radius="1.830000000000e0" ultrasoft_cutoff_radius="0.000000000000e0">
-2.227913363980000e-9 -2.687377152180001e-9 -3.241595563029999e-9 -3.910110360210001e-9
-4.716491810130000e-9 -5.689176630520000e-9 -6.862456893480000e-9 -8.277702676119997e-9
-9.984814990469999e-9 -1.204398468200000e-8 -1.452781708400000e-8 -1.752388985180000e-8
-2.113784195990001e-8 -2.549709798980000e-8 -3.075536137710000e-8 -3.709802187840000e-8
-4.474875089800000e-8 -5.397726898489999e-8 -6.510895402510000e-8 -7.853636062220001e-8
-9.473285377829999e-8 -1.142695210320000e-7 -1.378351962370000e-7 -1.662607673520000e-7
-2.005483949970000e-7 -2.419071998980000e-7 -2.917951021730000e-7 -3.519712644419999e-7
-4.245572978900000e-7 -5.121124887080001e-7 -6.177234717890000e-7 -7.451138319649999e-7
-8.987748270390000e-7 -1.084123916810000e-6 -1.307695525730000e-6 -1.577371555000000e-6
-1.902658481590000e-6 -2.295025571410000e-6 -2.768302626090000e-6 -3.339173778030000e-6
-4.027762525030000e-6 -4.858339074469999e-6 -5.860183833599999e-6 -7.068600378650000e-6
-8.526186942709998e-6 -1.028430119900000e-5 -1.240491097120000e-5 -1.496272414850000e-5
-1.804788221350000e-5 -2.176905320200000e-5 -2.625734097950000e-5 -3.167082690470001e-5
-3.820014670330001e-5 -4.607523335050001e-5 -5.557330027290002e-5 -6.702870146330000e-5
-8.084451006150001e-5 -9.750678873500000e-5 -1.176015595550000e-4 -1.418352720530000e-4
-1.710595883730000e-4 -2.063012570190001e-4 -2.487974677330000e-4 -3.000395446160000e-4
-3.618244874810000e-4 -4.363173477320000e-4 -5.261261991040000e-4 -6.343928868630000e-4
-7.649004233030000e-4 -9.222031322870000e-4 -1.111782552720000e-3 -1.340235246440000e-3
-1.615494762580000e-3 -1.947100030530000e-3 -2.346515324609999e-3 -2.827510088630000e-3
-3.406612137660000e-3 -4.103651273060000e-3 -4.942388205029999e-3 -5.951282677370000e-3
-7.164358653030000e-3 -8.622271085150000e-3 -1.037349637930000e-2 -1.247573935160000e-2
-1.499754943310000e-2 -1.802012915920000e-2 -2.163939480660000e-2 -2.596818663920000e-2
-3.113870201300000e-2 -3.730492114840000e-2 -4.464503901820000e-2 -5.336340417950001e-2
-6.369214550820001e-2 -7.589112536240000e-2 -9.024633860520000e-2 -1.070652625040000e-1
-1.266675511350000e-1 -1.493703426330000e-1 -1.754648287490000e-1 -2.051823307240000e-1
-2.386483034350000e-1 -2.758210895760000e-1 -3.164164505620000e-1 -3.598215528980000e-1
-4.050059052550000e-1 -4.504451966720000e-1 -4.940859323140000e-1 -5.333820128009999e-1
-5.654481136240000e-1 -5.873525117600000e-1 -5.965561963790000e-1 -5.914205744899999e-1
-5.716279001400000e-1 -5.382473242800000e-1 -4.931684510260000e-1 -4.377688130230000e-1
-3.711561782190000e-1 -2.891729937910000e-1 -1.867599844550000e-1 -6.871489433529999e-2
3.515941758440000e-2 1.027318734110000e-1 1.249067384420000e-1 1.035572934800000e-1
5.536268257890001e-2 1.188249594770000e-2 0.000000000000000e0 0.000000000000000e0
0.000000000000000e0 0.000000000000000e0 0.000000000000000e0 0.000000000000000e0
0.000000000000000e0 0.000000000000000e0 0.000000000000000e0 0.000000000000000e0
0.000000000000000e0 0.000000000000000e0 0.000000000000000e0 0.000000000000000e0
0.000000000000000e0 0.000000000000000e0 0.000000000000000e0 0.000000000000000e0
0.000000000000000e0 0.000000000000000e0 0.000000000000000e0 0.000000000000000e0
0.000000000000000e0 0.000000000000000e0 0.000000000000000e0 0.000000000000000e0
0.000000000000000e0 0.000000000000000e0 0.000000000000000e0 0.000000000000000e0
0.000000000000000e0 0.000000000000000e0 0.000000000000000e0 0.000000000000000e0
0.000000000000000e0 0.000000000000000e0 0.000000000000000e0 0.000000000000000e0
0.000000000000000e0 0.000000000000000e0 0.000000000000000e0 0.000000000000000e0
0.000000000000000e0 0.000000000000000e0 0.000000000000000e0 0.000000000000000e0
0.000000000000000e0 0.000000000000000e0 0.000000000000000e0
</PP_BETA.2>
<PP_DIJ>
1.687881924110000e0 0.000000000000000e0 0.000000000000000e0 -6.005481347840000e0
</PP_DIJ>
</PP_NONLOCAL>
<PP_PSWFC>
<PP_CHI.1 index="1" label="3S" l="0" occupation="2.000000000000e0" n="0" pseudo_energy="0.000000000000e0" cutoff_radius="1.830000000000e0" ultrasoft_cutoff_radius="0.000000000000e0">
7.430178799999999e-4 7.909384399999999e-4 8.419496199999999e-4 8.962507499999999e-4
9.540540000000000e-4 1.015585300000000e-3 1.081084900000000e-3 1.150809000000000e-3
1.225029900000000e-3 1.304037700000000e-3 1.388141000000000e-3 1.477668600000000e-3
1.572970300000000e-3 1.674418400000000e-3 1.782409400000000e-3 1.897365300000000e-3
2.019735300000000e-3 2.149997600000000e-3 2.288661100000000e-3 2.436267900000000e-3
2.593394600000000e-3 2.760655300000000e-3 2.938703700000000e-3 3.128235400000000e-3
3.329991300000001e-3 3.544759700000000e-3 3.773380000000000e-3 4.016745599999999e-3
4.275807700000001e-3 4.551578700000000e-3 4.845136399999999e-3 5.157628300000000e-3
5.490275700000000e-3 5.844378900000001e-3 6.221322000000001e-3 6.622578600000000e-3
7.049717200000000e-3 7.504407800000000e-3 7.988428200000000e-3 8.503670800000000e-3
9.052150700000000e-3 9.636012800000000e-3 1.025754100000000e-2 1.091916600000000e-2
1.162347700000000e-2 1.237322900000000e-2 1.317135800000000e-2 1.402098700000000e-2
1.492544300000000e-2 1.588826900000000e-2 1.691323600000000e-2 1.800436200000000e-2
1.916592500000000e-2 2.040248200000000e-2 2.171888400000000e-2 2.312030100000000e-2
2.461224000000000e-2 2.620056700000000e-2 2.789153400000000e-2 2.969180100000000e-2
3.160846700000000e-2 3.364910100000000e-2 3.582177000000000e-2 3.813507700000001e-2
4.059819900000000e-2 4.322092500000000e-2 4.601370400000000e-2 4.898768800000000e-2
5.215478999999999e-2 5.552773300000000e-2 5.912012099999999e-2 6.294650000000001e-2
6.702243700000000e-2 7.136459900000000e-2 7.599084899999999e-2 8.092034200000001e-2
8.617364299999998e-2 9.177284900000000e-2 9.774173399999999e-2 1.041059100000000e-1
1.108929900000000e-1 1.181328200000000e-1 1.258577000000000e-1 1.341026400000000e-1
1.429056600000000e-1 1.523081700000000e-1 1.623553000000000e-1 1.730964300000000e-1
1.845856500000000e-1 1.968823600000000e-1 2.100519700000000e-1 2.241665600000000e-1
2.393057400000000e-1 2.555575100000000e-1 2.730190600000000e-1 2.917976400000000e-1
3.120111200000000e-1 3.337882100000000e-1 3.572679400000000e-1 3.825979100000000e-1
4.099305300000000e-1 4.394161400000000e-1 4.711912900000000e-1 5.053601400000000e-1
5.419658200000001e-1 5.809483600000000e-1 6.220855600000000e-1 6.649140500000001e-1
7.086314700000001e-1 7.519883099999999e-1 7.931913900000001e-1 8.298606500000000e-1
8.591026599999999e-1 8.777736200000000e-1 8.829768700000001e-1 8.727487999999999e-1
8.467301600000001e-1 8.064662999999999e-1 7.549818900000000e-1 6.956274000000001e-1
6.310325100000000e-1 5.634367600000000e-1 4.949715700000000e-1 4.276104600000000e-1
3.630979400000000e-1 3.028889400000000e-1 2.480989500000000e-1 1.994703900000000e-1
1.573631100000000e-1 1.217735300000000e-1 9.238093200000000e-2 6.861895699999999e-2
4.977576400000000e-2 3.512243100000001e-2 2.401425700000000e-2 1.587860100000000e-2
1.014987900000000e-2 6.270903699999999e-3 3.741527300000000e-3 2.152529800000000e-3
1.191662400000000e-3 6.333484299999999e-4 3.223254600000000e-4 1.566376200000000e-4
7.246814800000001e-5 3.181693200000001e-5 1.321126100000000e-5 5.169117200000000e-6
1.898335300000000e-6 6.516098100000001e-7 2.081112200000000e-7 6.154258400000000e-8
1.676214900000000e-8 4.180741800000000e-9 9.488573199999999e-10 1.945977700000000e-10
3.578514400000000e-11 5.863732100000001e-12 9.569603100000002e-13 1.382964600000000e-13
1.755984600000000e-14 1.942667000000000e-15 1.856033400000000e-16 1.516965800000001e-17
1.050017000000000e-18 6.089663800000000e-20 2.925583600000000e-21 1.150217800000000e-22
3.653272600000000e-24 9.245755900000006e-26 1.837382600000000e-27 2.822811100000001e-29
3.297467200000001e-31 2.877544799999999e-33 0.000000000000000e0
</PP_CHI.1>
<PP_CHI.2 index="2" label="3P" l="1" occupation="5.000000000000e0" n="0" pseudo_energy="0.000000000000e0" cutoff_radius="1.830000000000e0" ultrasoft_cutoff_radius="0.000000000000e0">
1.302217800000000e-6 1.475606000000000e-6 1.672080600000000e-6 1.894715300000000e-6
2.146993500000000e-6 2.432862100000000e-6 2.756793600000000e-6 3.123855999999999e-6
3.539792000000000e-6 4.011109100000000e-6 4.545181100000000e-6 5.150363700000000e-6
5.836125099999999e-6 6.613194099999999e-6 7.493727999999999e-6 8.491502900000000e-6
9.622129000000001e-6 1.090329500000000e-5 1.235504500000000e-5 1.400009000000000e-5
1.586416900000000e-5 1.797644200000000e-5 2.036995800000000e-5 2.308216100000000e-5
2.615548200000000e-5 2.963800100000000e-5 3.358420100000000e-5 3.805581499999999e-5
4.312279800000000e-5 4.886441599999999e-5 5.537048899999998e-5 6.274279199999999e-5
7.109665199999999e-5 8.056274600000000e-5 9.128914599999998e-5 1.034436300000000e-4
1.172163200000000e-4 1.328226400000000e-4 1.505066600000000e-4 1.705449800000000e-4
1.932509600000000e-4 2.189796800000000e-4 2.481334900000000e-4 2.811682200000000e-4
3.186003900000000e-4 3.610151800000000e-4 4.090756299999999e-4 4.635329400000000e-4
5.252381699999999e-4 5.951555399999999e-4 6.743773900000001e-4 7.641412000000001e-4
8.658488300000002e-4 9.810882699999999e-4 1.111658300000000e-3 1.259596500000000e-3
1.427210300000000e-3 1.617113400000000e-3 1.832265600000000e-3 2.076018400000000e-3
2.352166700000000e-3 2.665007000000000e-3 3.019403000000000e-3 3.420859700000000e-3
3.875607300000000e-3 4.390695400000000e-3 4.974099000000000e-3 5.634838300000000e-3
6.383113000000000e-3 7.230453100000000e-3 8.189888600000000e-3 9.276138899999999e-3
1.050582500000000e-2 1.189770500000000e-2 1.347294200000000e-2 1.525538900000000e-2
1.727192100000000e-2 1.955278900000000e-2 2.213201200000000e-2 2.504780600000000e-2
2.834305300000000e-2 3.206579800000000e-2 3.626979000000000e-2 4.101504300000000e-2
4.636842400000000e-2 5.240425100000000e-2 5.920488100000000e-2 6.686126900000000e-2
7.547346600000000e-2 8.515100100000000e-2 9.601310300000000e-2 1.081886700000000e-1
1.218159100000000e-1 1.370414600000000e-1 1.540189300000000e-1 1.729065300000000e-1
1.938636600000000e-1 2.170460400000000e-1 2.425991200000000e-1 2.706492600000000e-1
3.012922500000000e-1 3.345787900000000e-1 3.704962500000000e-1 4.089467100000000e-1
4.497209900000000e-1 4.924693600000000e-1 5.366703000000000e-1 5.815999200000000e-1
6.263068400000000e-1 6.695994499999999e-1 7.100552900000000e-1 7.460640600000001e-1
7.759160700000000e-1 7.979433400000000e-1 8.107085000000001e-1 8.132167900000001e-1
8.050987800000000e-1 7.866878499999999e-1 7.589177200000000e-1 7.230338200000000e-1
6.803036700000000e-1 6.320483200000000e-1 5.796812600000000e-1 5.246722100000000e-1
4.685020900000000e-1 4.126111200000000e-1 3.583364700000000e-1 3.068428100000000e-1
2.590564500000000e-1 2.156140800000000e-1 1.768340800000000e-1 1.427233400000000e-1
1.130518000000000e-1 8.753129100000001e-2 6.600632100000001e-2 4.841117400000000e-2
3.454742200000000e-2 2.400015800000000e-2 1.622675300000000e-2 1.066684400000000e-2
6.807347300000000e-3 4.209908000000000e-3 2.517924400000000e-3 1.453239400000000e-3
8.074904500000001e-4 4.308805700000001e-4 2.202106100000000e-4 1.074851200000000e-4
4.995432500000000e-5 2.203489800000000e-5 9.193185600000000e-6 3.614423200000000e-6
1.333884400000000e-6 4.601162800000000e-7 1.476769900000000e-7 4.388579100000001e-8
1.201140600000000e-8 3.010322900000000e-9 6.865725099999999e-10 1.419715800000000e-10
2.904535400000000e-11 5.336704999999998e-12 8.745283799999997e-13 1.268725400000000e-13
1.616726000000000e-14 1.794495300000000e-15 1.719543200000000e-16 1.409052100000000e-17
9.774554499999997e-19 5.678753300000001e-20 2.731645500000001e-21 1.074780600000000e-22
3.414344400000000e-24 8.637571099999999e-26 1.714711700000000e-27
</PP_CHI.2>
<PP_CHI.3 index="3" label="3D" l="2" occupation="0.000000000000e0" n="0" pseudo_energy="0.000000000000e0" cutoff_radius="0.000000000000e0" ultrasoft_cutoff_radius="0.000000000000e0">
7.617034799999999e-10 9.187896899999998e-10 1.108271900000000e-9 1.336831000000000e-9
1.612526000000000e-9 1.945077500000000e-9 2.346211299999999e-9 2.830070899999999e-9
3.413717000000000e-9 4.117728300000000e-9 4.966927900000000e-9 5.991257800000001e-9
7.226835000000000e-9 8.717224800000000e-9 1.051497700000000e-8 1.268347900000000e-8
1.529918900000000e-8 1.845433500000000e-8 2.226016400000000e-8 2.685086400000000e-8
3.238829700000001e-8 3.906770500000000e-8 4.712459400000001e-8 5.684303700000001e-8
6.856568699999999e-8 8.270586100000001e-8 9.976211299999999e-8 1.203358000000000e-7
1.451523100000000e-7 1.750865800000001e-7 2.111940100000000e-7 2.547476100000000e-7
3.072829000000000e-7 3.706520600000001e-7 4.470891499999999e-7 5.392889199999999e-7
6.505017700000002e-7 7.846482700000001e-7 9.464573699999999e-7 1.141633000000000e-6
1.377055200000000e-6 1.661022300000000e-6 2.003543300000000e-6 2.416690700000000e-6
2.915025400000000e-6 3.516109800000000e-6 4.241125700000000e-6 5.115620399999999e-6
6.170406000000000e-6 7.442642900000002e-6 8.977148000000001e-6 1.082797000000000e-5
1.306029000000000e-5 1.575271200000000e-5 1.900002300000000e-5 2.291652400000000e-5
2.764003700000000e-5 3.333673700000000e-5 4.020698100000001e-5 4.849231600000000e-5
5.848393000000000e-5 7.053282800000000e-5 8.506207500000002e-5 1.025815500000000e-4
1.237056700000000e-4 1.491747500000000e-4 1.798806300000000e-4 2.168975800000000e-4
2.615192600000000e-4 3.153032800000000e-4 3.801245399999999e-4 4.582392500000000e-4
5.523616100000000e-4 6.657555700000000e-4 8.023445900000002e-4 9.668426600000000e-4
1.164910600000000e-3 1.403342000000000e-3 1.690284400000000e-3 2.035501300000000e-3
2.450682200000000e-3 2.949808000000000e-3 3.549580500000000e-3 4.269925199999999e-3