<UPF version="2.0.1">
<PP_INFO>
Generated by new atomic code, or converted to UPF format
Author:
Generation date:
Pseudopotential type: NC
Element: Na
Functional:  SLA  PW   GGX  GGC
Suggested minimum cutoff for wavefunctions:   0. Ry
Suggested minimum cutoff for charge density:   0. Ry
The Pseudo was generated with a Non-Relativistic Calculation
L component and cutoff radius for Local Potential:  0   0.0000
Valence configuration:
nl pn  l   occ       Rcut    Rcut US       E pseu
3S  0  0  0.60      0.000      0.000     0.000000
3P  0  1  0.10      0.000      0.000     0.000000
3D  0  2  0.10      0.000      0.000     0.000000
Generation configuration: not available.
</PP_INFO>
<!--
END OF HUMAN READABLE SECTION
-->
<PP_HEADER generated="Generated by new atomic code, or converted to UPF format" author="" date="" comment="" element="Na" pseudo_type="NC" relativistic="no" is_ultrasoft="false" is_paw="false" is_coulomb="false" has_so="false" has_wfc="false" has_gipaw="false" paw_as_gipaw="false" core_correction="true" functional=" SLA  PW   GGX  GGC" z_valence="1.000000000000e0" total_psenergy="0.000000000000e0" wfc_cutoff="0.000000000000e0" rho_cutoff="0.000000000000e0" l_max="1" l_max_rho="0" l_local="0" mesh_size="725" number_of_wfc="3" number_of_proj="2"/>
<PP_MESH dx="2.000000000000e-2" mesh="725" xmin="-8.000000000000e0" rmax="5.927008602470e1" zmesh="1.100000000000e1">
<PP_R>
3.049660253660000e-5 3.111267477410001e-5 3.174119249629999e-5 3.238240711880000e-5
3.303657513590000e-5 3.370395822360000e-5 3.438482334390000e-5 3.507944285200000e-5
3.578809460500000e-5 3.651106207300001e-5 3.724863445270000e-5 3.800110678280000e-5
3.876878006230000e-5 3.955196137080000e-5 4.035096399120000e-5 4.116610753520000e-5
4.199771807110000e-5 4.284612825420000e-5 4.371167745990000e-5 4.459471191940000e-5
4.549558485820000e-5 4.641465663770000e-5 4.735229489860000e-5 4.830887470890000e-5
4.928477871320000e-5 5.028039728620000e-5 5.129612868840000e-5 5.233237922610000e-5
5.338956341330001e-5 5.446810413770001e-5 5.556843283000000e-5 5.669098963629999e-5
5.783622359440001e-5 5.900459281310000e-5 6.019656465570000e-5 6.141261592670000e-5
6.265323306299999e-5 6.391891232790002e-5 6.521016000990000e-5 6.652749262550000e-5
6.787143712520000e-5 6.924253110459999e-5 7.064132301979999e-5 7.206837240600001e-5
7.352425010219999e-5 7.500953847870000e-5 7.652483167080002e-5 7.807073581580002e-5
7.964786929619999e-5 8.125686298629999e-5 8.289836050500000e-5 8.457301847319998e-5
8.628150677640001e-5 8.802450883290000e-5 8.980272186650000e-5 9.161685718619999e-5
9.346764047039999e-5 9.535581205709999e-5 9.728212723999999e-5 9.924735657090000e-5
1.012522861680000e-4 1.032977180290000e-4 1.053844703550000e-4 1.075133778740000e-4
1.096852921780000e-4 1.119010820610000e-4 1.141616338690000e-4 1.164678518530000e-4
1.188206585310000e-4 1.212209950560000e-4 1.236698215950000e-4 1.261681177120000e-4
1.287168827590000e-4 1.313171362750000e-4 1.339699183960000e-4 1.366762902710000e-4
1.394373344840000e-4 1.422541554900000e-4 1.451278800560000e-4 1.480596577080000e-4
1.510506611980000e-4 1.541020869660000e-4 1.572151556230000e-4 1.603911124390000e-4
1.636312278390000e-4 1.669367979120000e-4 1.703091449290000e-4 1.737496178760000e-4
1.772595929860000e-4 1.808404742970000e-4 1.844936942090000e-4 1.882207140580000e-4
1.920230247030000e-4 1.959021471180000e-4 1.998596330040000e-4 2.038970654080000e-4
2.080160593570000e-4 2.122182625030000e-4 2.165053557829999e-4 2.208790540930000e-4
2.253411069700000e-4 2.298932992940000e-4 2.345374520020000e-4 2.392754228190000e-4
2.441091069960000e-4 2.490404380700000e-4 2.540713886400000e-4 2.592039711530000e-4
2.644402387100000e-4 2.697822858890000e-4 2.752322495800000e-4 2.807923098400000e-4
2.864646907680000e-4 2.922516613920001e-4 2.981555365769999e-4 3.041786779520000e-4
3.103234948540000e-4 3.165924452920000e-4 3.229880369290000e-4 3.295128280880000e-4
3.361694287709999e-4 3.429605017080000e-4 3.498887634190000e-4 3.569569853010000e-4
3.641679947349999e-4 3.715246762240000e-4 3.790299725370000e-4 3.866868858920000e-4
3.944984791580000e-4 4.024678770760000e-4 4.105982675100001e-4 4.188929027269999e-4
4.273551006889999e-4 4.359882463910000e-4 4.447957932040000e-4 4.537812642650001e-4
4.629482538820000e-4 4.723004289730000e-4 4.818415305339999e-4 4.915753751310000e-4
5.015058564330000e-4 5.116369467639999e-4 5.219726986960000e-4 5.325172466670001e-4
5.432748086369999e-4 5.542496877740000e-4 5.654462741770000e-4 5.768690466280000e-4
5.885225743900001e-4 6.004115190290000e-4 6.125406362800000e-4 6.249147779539999e-4
6.375388938710000e-4 6.504180338470000e-4 6.635573497079999e-4 6.769620973569999e-4
6.906376388709999e-4 7.045894446489999e-4 7.188230955990001e-4 7.333442853730000e-4
7.481588226380000e-4 7.632726334080000e-4 7.786917634090001e-4 7.944223804980000e-4
8.104707771310002e-4 8.268433728810001e-4 8.435467170059997e-4 8.605874910650000e-4
8.779725115939998e-4 8.957087328349999e-4 9.138032495119999e-4 9.322632996730000e-4
9.510962675840000e-4 9.703096866839999e-4 9.899112425959999e-4 1.009908776200000e-3
1.030310286790000e-3 1.051123935220000e-3 1.072358047250000e-3 1.094021116790000e-3
1.116121809370000e-3 1.138668965550000e-3 1.161671604500000e-3 1.185138927590000e-3
1.209080322040000e-3 1.233505364750000e-3 1.258423826040000e-3 1.283845673650000e-3
1.309781076650000e-3 1.336240409540000e-3 1.363234256410000e-3 1.390773415160000e-3
1.418868901820000e-3 1.447531954960000e-3 1.476774040180000e-3 1.506606854710000e-3
1.537042332060000e-3 1.568092646850000e-3 1.599770219600000e-3 1.632087721770000e-3
1.665058080790000e-3 1.698694485250000e-3 1.733010390150000e-3 1.768019522310000e-3
1.803735885850000e-3 1.840173767800000e-3 1.877347743790000e-3 1.915272683910000e-3
1.953963758640000e-3 1.993436444930000e-3 2.033706532380000e-3 2.074790129550000e-3
2.116703670450000e-3 2.159463921030000e-3 2.203087985970000e-3 2.247593315490000e-3
2.292997712290000e-3 2.339319338760000e-3 2.386576724150000e-3 2.434788772060000e-3
2.483974767940000e-3 2.534154386840000e-3 2.585347701290000e-3 2.637575189290000e-3
2.690857742540000e-3 2.745216674760000e-3 2.800673730250000e-3 2.857251092580000e-3
2.914971393440000e-3 2.973857721730000e-3 3.033933632760000e-3 3.095223157690000e-3
3.157750813160000e-3 3.221541611050000e-3 3.286621068550000e-3 3.353015218290000e-3
3.420750618830000e-3 3.489854365230000e-3 3.560354099910001e-3 3.632278023700000e-3
3.705654907120000e-3 3.780514101920000e-3 3.856885552770000e-3 3.934799809270000e-3
4.014288038150000e-3 4.095382035780000e-3 4.178114240820000e-3 4.262517747270000e-3
4.348626317650000e-3 4.436474396550000e-3 4.526097124349999e-3 4.617530351350000e-3
4.710810652069999e-3 4.805975339850000e-3 4.903062481850000e-3 5.002110914219999e-3
5.103160257650000e-3 5.206250933220000e-3 5.311424178589999e-3 5.418722064450000e-3
5.528187511380001e-3 5.639864307030001e-3 5.753797123600000e-3 5.870031535739999e-3
5.988614038760000e-3 6.109592067250000e-3 6.233014014030001e-3 6.358929249509999e-3
6.487388141490000e-3 6.618442075220000e-3 6.752143474029999e-3 6.888545820260000e-3
7.027703676660001e-3 7.169672708239999e-3 7.314509704500000e-3 7.462272602170001e-3
7.613020508380000e-3 7.766813724300001e-3 7.923713769270001e-3 8.083783405400002e-3
8.247086662670000e-3 8.413688864579999e-3 8.583656654210001e-3 8.757058020950002e-3
8.933962327669999e-3 9.114440338440000e-3 9.298564246870001e-3 9.486407704980000e-3
9.678045852660000e-3 9.873555347719998e-3 1.007301439660000e-2 1.027650278550000e-2
1.048410191260000e-2 1.069589482020000e-2 1.091196622830000e-2 1.113240256850000e-2
1.135729201810000e-2 1.158672453590000e-2 1.182079189800000e-2 1.205958773460000e-2
1.230320756700000e-2 1.255174884640000e-2 1.280531099280000e-2 1.306399543430000e-2
1.332790564820000e-2 1.359714720210000e-2 1.387182779610000e-2 1.415205730620000e-2
1.443794782790000e-2 1.472961372130000e-2 1.502717165650000e-2 1.533074066080000e-2
1.564044216570000e-2 1.595640005610000e-2 1.627874071920000e-2 1.660759309570000e-2
1.694308873090000e-2 1.728536182740000e-2 1.763454929920000e-2 1.799079082580000e-2
1.835422890860000e-2 1.872500892770000e-2 1.910327920010000e-2 1.948919103880000e-2
1.988289881380000e-2 2.028456001350000e-2 2.069433530760000e-2 2.111238861180000e-2
2.153888715290000e-2 2.197400153610000e-2 2.241790581290000e-2 2.287077755090000e-2
2.333279790490000e-2 2.380415168910000e-2 2.428502745140000e-2 2.477561754850000e-2
2.527611822300000e-2 2.578672968180000e-2 2.630765617630000e-2 2.683910608400000e-2
2.738129199200000e-2 2.793443078190000e-2 2.849874371660000e-2 2.907445652880000e-2
2.966179951120001e-2 3.026100760890000e-2 3.087232051320000e-2 3.149598275730000e-2
3.213224381440000e-2 3.278135819760000e-2 3.344358556100000e-2 3.411919080470000e-2
3.480844417960000e-2 3.551162139620000e-2 3.622900373500000e-2 3.696087815819999e-2
3.770753742560000e-2 3.846928021070000e-2 3.924641122080000e-2 4.003924131870001e-2
4.084808764700000e-2 4.167327375499999e-2 4.251512972820000e-2 4.337399232010000e-2
4.425020508730000e-2 4.514411852649999e-2 4.605609021510000e-2 4.698648495380001e-2
4.793567491300000e-2 4.890403978130000e-2 4.989196691760000e-2 5.089985150590000e-2
5.192809671350000e-2 5.297711385220000e-2 5.404732254270000e-2 5.513915088300000e-2
5.625303561870000e-2 5.738942231879999e-2 5.854876555300001e-2 5.973152907410000e-2
6.093818600320001e-2 6.216921901929999e-2 6.342512055189999e-2 6.470639297840000e-2
6.601354882490000e-2 6.734711097110000e-2 6.870761285960000e-2 7.009559870940000e-2
7.151162373330000e-2 7.295625436020002e-2 7.443006846159999e-2 7.593365558280000e-2
7.746761717870000e-2 7.903256685439999e-2 8.062913061069999e-2 8.225794709420001e-2
8.391966785330000e-2 8.561495759860000e-2 8.734449446839999e-2 8.910897030059999e-2
9.090909090909999e-2 9.274557636609998e-2 9.461916129019999e-2 9.653059514050000e-2
9.848064251589999e-2 1.004700834610000e-1 1.024997137800000e-1 1.045703453510000e-1
1.066828064540000e-1 1.088379421020000e-1 1.110366143780000e-1 1.132797027810000e-1
1.155681045750000e-1 1.179027351510000e-1 1.202845283940000e-1 1.227144370520000e-1
1.251934331210000e-1 1.277225082330000e-1 1.303026740510000e-1 1.329349626760000e-1
1.356204270580000e-1 1.383601414200000e-1 1.411552016830000e-1 1.440067259090000e-1
1.469158547450000e-1 1.498837518820000e-1 1.529116045180000e-1 1.560006238350000e-1
1.591520454810000e-1 1.623671300680000e-1 1.656471636720000e-1 1.689934583500000e-1
1.724073526640000e-1 1.758902122180000e-1 1.794434302030000e-1 1.830684279520000e-1
1.867666555130000e-1 1.905395922270000e-1 1.943887473180000e-1 1.983156605000000e-1
2.023219025900000e-1 2.064090761390000e-1 2.105788160710000e-1 2.148327903370000e-1
2.191727005830000e-1 2.236002828320000e-1 2.281173081760000e-1 2.327255834840000e-1
2.374269521290000e-1 2.422232947210000e-1 2.471165298600000e-1 2.521086149060000e-1
2.572015467590000e-1 2.623973626610000e-1 2.676981410060000e-1 2.731060021770000e-1
2.786231093900000e-1 2.842516695620000e-1 2.899939341920000e-1 2.958522002630000e-1
3.018288111580000e-1 3.079261576020000e-1 3.141466786150000e-1 3.204928624880000e-1
3.269672477790000e-1 3.335724243290000e-1 3.403110342960000e-1 3.471857732150000e-1
3.541993910720000e-1 3.613546934090000e-1 3.686545424400000e-1 3.761018582050000e-1
3.836996197270000e-1 3.914508662130000e-1 3.993586982650000e-1 4.074262791220001e-1
4.156568359220000e-1 4.240536609990000e-1 4.326201131940000e-1 4.413596192030000e-1
4.502756749450000e-1 4.593718469600000e-1 4.686517738400000e-1 4.781191676770000e-1
4.877778155570000e-1 4.976315810660000e-1 5.076844058430000e-1 5.179403111520000e-1
5.284033994910001e-1 5.390778562360000e-1 5.499679513100000e-1 5.610780408990000e-1
5.724125691839999e-1 5.839760701299999e-1 5.957731692900000e-1 6.078085856620000e-1
6.200871335720000e-1 6.326137246030000e-1 6.453933695600000e-1 6.584311804690000e-1
6.717323726300000e-1 6.853022666970000e-1 6.991462908070000e-1 7.132699827560000e-1
7.276789922090000e-1 7.423790829610000e-1 7.573761352440000e-1 7.726761480810000e-1
7.882852416780000e-1 8.042096598839999e-1 8.204557726760001e-1 8.370300787169999e-1
8.539392079490000e-1 8.711899242510000e-1 8.887891281390001e-1 9.067438595290000e-1
9.250613005520000e-1 9.437487784300000e-1 9.628137684030001e-1 9.822638967210001e-1
1.002106943690000e0 1.022350846810000e0 1.043003703890000e0 1.064073776360000e0
1.085569492530000e0 1.107499450970000e0 1.129872423960000e0 1.152697360980000e0
1.175983392320000e0 1.199739832700000e0 1.223976185000000e0 1.248702144100000e0
1.273927600700000e0 1.299662645330000e0 1.325917572350000e0 1.352702884080000e0
1.380029295000000e0 1.407907736030000e0 1.436349358930000e0 1.465365540730000e0
1.494967888280000e0 1.525168242920000e0 1.555978685200000e0 1.587411539690000e0
1.619479379960000e0 1.652195033590000e0 1.685571587250000e0 1.719622392020000e0
1.754361068680000e0 1.789801513160000e0 1.825957902110000e0 1.862844698560000e0
1.900476657740000e0 1.938868832910000e0 1.978036581470000e0 2.017995571040000e0
2.058761785740000e0 2.100351532610000e0 2.142781448100000e0 2.186068504730000e0
2.230230017920000e0 2.275283652850000e0 2.321247431580000e0 2.368139740230000e0
2.415979336350000e0 2.464785356420000e0 2.514577323500000e0 2.565375155040000e0
2.617199170840000e0 2.670070101210000e0 2.724009095220000e0 2.779037729190000e0
2.835178015300000e0 2.892452410420000e0 2.950883825080000e0 3.010495632610000e0
3.071311678530000e0 3.133356290080000e0 3.196654285920000e0 3.261230986100000e0
3.327112222150000e0 3.394324347460000e0 3.462894247760000e0 3.532849351940000e0
3.604217642960000e0 3.677027669100000e0 3.751308555330000e0 3.827090015000000e0
3.904402361710000e0 3.983276521420000e0 4.063744044850000e0 4.145837120080000e0
4.229588585440000e0 4.315031942620000e0 4.402201370120000e0 4.491131736870000e0
4.581858616190000e0 4.674418300050000e0 4.768847813550000e0 4.865184929770000e0
4.963468184830000e0 5.063736893350000e0 5.166031164130000e0 5.270391916270000e0
5.376860895440000e0 5.485480690670000e0 5.596294751310000e0 5.709347404470000e0
5.824683872720000e0 5.942350292180000e0 6.062393730990000e0 6.184862208130000e0
6.309804712610000e0 6.437271223120000e0 6.567312727940000e0 6.699981245420000e0
6.835329844730000e0 6.973412667120000e0 7.114284947550000e0 7.258003036830000e0
7.404624424090000e0 7.554207759850000e0 7.706812879440000e0 7.862500826940000e0
8.021333879600000e0 8.183375572770000e0 8.348690725290000e0 8.517345465409999e0
8.689407257279999e0 8.864944927910001e0 9.044028694720000e0 9.226730193600000e0
9.413122507570000e0 9.603280196060000e0 9.797279324670001e0 9.995197495650000e0
1.019711387890000e1 1.040310924370000e1 1.061326599080000e1 1.082766818590000e1
1.104640159260000e1 1.126955370730000e1 1.149721379360000e1 1.172947291890000e1
1.196642398960000e1 1.220816178950000e1 1.245478301700000e1 1.270638632360000e1
1.296307235430000e1 1.322494378670000e1 1.349210537300000e1 1.376466398130000e1
1.404272863870000e1 1.432641057490000e1 1.461582326620000e1 1.491108248180000e1
1.521230632920000e1 1.551961530190000e1 1.583313232770000e1 1.615298281760000e1
1.647929471590000e1 1.681219855190000e1 1.715182749140000e1 1.749831739070000e1
1.785180685020000e1 1.821243727040000e1 1.858035290850000e1 1.895570093540000e1
1.933863149540000e1 1.972929776590000e1 2.012785601860000e1 2.053446568200000e1
2.094928940550000e1 2.137249312410000e1 2.180424612490000e1 2.224472111490000e1
2.269409429000000e1 2.315254540530000e1 2.362025784750000e1 2.409741870780000e1
2.458421885690000e1 2.508085302130000e1 2.558751986140000e1 2.610442205060000e1
2.663176635660000e1 2.716976372430000e1 2.771862935970000e1 2.827858281650000e1
2.884984808340000e1 2.943265367430000e1 3.002723271910000e1 3.063382305730000e1
3.125266733320000e1 3.188401309270000e1 3.252811288260000e1 3.318522435140000e1
3.385561035240000e1 3.453953904890000e1 3.523728402160000e1 3.594912437780000e1
3.667534486300000e1 3.741623597520000e1 3.817209408060000e1 3.894322153270000e1
3.972992679260000e1 4.053252455300000e1 4.135133586360000e1 4.218668825990000e1
4.303891589410000e1 4.390835966840000e1 4.479536737210000e1 4.570029382000000e1
4.662350099480000e1 4.756535819160000e1 4.852624216600001e1 4.950653728420001e1
5.050663567740000e1 5.152693739830000e1 5.256785058120000e1 5.362979160530000e1
5.471318526110000e1 5.581846492050000e1 5.694607271010000e1 5.809645968810000e1
5.927008602470000e1
</PP_R>
<PP_RAB>
6.099320507320001e-7 6.222534954820001e-7 6.348238499270000e-7 6.476481423760000e-7
6.607315027179999e-7 6.740791644709999e-7 6.876964668780000e-7 7.015888570400000e-7
7.157618920999999e-7 7.302212414610000e-7 7.449726890540001e-7 7.600221356560001e-7
7.753756012470001e-7 7.910392274159999e-7 8.070192798230000e-7 8.233221507030002e-7
8.399543614210000e-7 8.569225650830001e-7 8.742335491970000e-7 8.918942383870000e-7
9.099116971650002e-7 9.282931327529999e-7 9.470458979729999e-7 9.661774941790000e-7
9.856955742649999e-7 1.005607945720000e-6 1.025922573770000e-6 1.046647584520000e-6
1.067791268270000e-6 1.089362082750000e-6 1.111368656600000e-6 1.133819792730000e-6
1.156724471890000e-6 1.180091856260000e-6 1.203931293110000e-6 1.228252318530000e-6
1.253064661260000e-6 1.278378246560000e-6 1.304203200200000e-6 1.330549852510000e-6
1.357428742500000e-6 1.384850622090000e-6 1.412826460400000e-6 1.441367448120000e-6
1.470485002040000e-6 1.500190769570000e-6 1.530496633420000e-6 1.561414716320000e-6
1.592957385920000e-6 1.625137259730000e-6 1.657967210100000e-6 1.691460369460000e-6
1.725630135530000e-6 1.760490176660000e-6 1.796054437330000e-6 1.832337143720000e-6
1.869352809410000e-6 1.907116241140000e-6 1.945642544800000e-6 1.984947131420000e-6
2.025045723350000e-6 2.065954360580000e-6 2.107689407100000e-6 2.150267557480000e-6
2.193705843560001e-6 2.238021641220000e-6 2.283232677390000e-6 2.329357037060000e-6
2.376413170610000e-6 2.424419901120000e-6 2.473396431910000e-6 2.523362354250000e-6
2.574337655180000e-6 2.626342725490000e-6 2.679398367920000e-6 2.733525805410000e-6
2.788746689680001e-6 2.845083109810000e-6 2.902557601110000e-6 2.961193154160000e-6
3.021013223950000e-6 3.082041739320000e-6 3.144303112470000e-6 3.207822248790000e-6
3.272624556779999e-6 3.338735958230000e-6 3.406182898590000e-6 3.474992357510001e-6
3.545191859720001e-6 3.616809485940001e-6 3.689873884170000e-6 3.764414281160000e-6
3.840460494060001e-6 3.918042942360000e-6 3.997192660080001e-6 4.077941308160000e-6
4.160321187130000e-6 4.244365250050000e-6 4.330107115670000e-6 4.417581081860000e-6
4.506822139390000e-6 4.597865985870000e-6 4.690749040049999e-6 4.785508456390001e-6
4.882182139919999e-6 4.980808761400001e-6 5.081427772789999e-6 5.184079423050000e-6
5.288804774200000e-6 5.395645717780000e-6 5.504644991590001e-6 5.615846196789999e-6
5.729293815349999e-6 5.845033227830001e-6 5.963110731530000e-6 6.083573559040000e-6
6.206469897080000e-6 6.331848905839999e-6 6.459760738579999e-6 6.590256561760000e-6
6.723388575420000e-6 6.859210034169999e-6 6.997775268380000e-6 7.139139706010001e-6
7.283359894710001e-6 7.430493524479999e-6 7.580599450730001e-6 7.733737717850000e-6
7.889969583160000e-6 8.049357541510000e-6 8.211965350200000e-6 8.377858054530002e-6
8.547102013789999e-6 8.719764927809999e-6 8.895915864069998e-6 9.075625285290002e-6
9.258965077630000e-6 9.446008579460001e-6 9.636830610670000e-6 9.831507502620001e-6
1.003011712870000e-5 1.023273893530000e-5 1.043945397390000e-5 1.065034493330000e-5
1.086549617270000e-5 1.108499375550000e-5 1.130892548350000e-5 1.153738093260000e-5
1.177045148780000e-5 1.200823038060000e-5 1.225081272560000e-5 1.249829555910000e-5
1.275077787740000e-5 1.300836067690000e-5 1.327114699420000e-5 1.353924194710000e-5
1.381275277740000e-5 1.409178889300000e-5 1.437646191200000e-5 1.466688570750000e-5
1.496317645280000e-5 1.526545266820000e-5 1.557383526820000e-5 1.588844761000000e-5
1.620941554260000e-5 1.653686745760000e-5 1.687093434010000e-5 1.721174982130000e-5
1.755945023190000e-5 1.791417465670000e-5 1.827606499020000e-5 1.864526599350000e-5
1.902192535170000e-5 1.940619373370000e-5 1.979822485190000e-5 2.019817552410000e-5
2.060620573580001e-5 2.102247870450000e-5 2.144716094500000e-5 2.188042233590000e-5
2.232243618740000e-5 2.277337931100000e-5 2.323343209010000e-5 2.370277855170000e-5
2.418160644080000e-5 2.467010729490000e-5 2.516847652090000e-5 2.567691347300000e-5
2.619562153290000e-5 2.672480819070000e-5 2.726468512809999e-5 2.781546830310000e-5
2.837737803630000e-5 2.895063909909999e-5 2.953548080350000e-5 3.013213709410000e-5
3.074084664130001e-5 3.136185293700000e-5 3.199540439199999e-5 3.264175443550000e-5
3.330116161590000e-5 3.397388970500001e-5 3.466020780290000e-5 3.536039044620001e-5
3.607471771700000e-5 3.680347535599999e-5 3.754695487580000e-5 3.830545367829999e-5
3.907927517290000e-5 3.986872889870000e-5 4.067413064760000e-5 4.149580259110000e-5
4.233407340889999e-5 4.318927842060000e-5 4.406175971940000e-5 4.495186630970000e-5
4.585995424590000e-5 4.678638677520000e-5 4.773153448310000e-5 4.869577544119999e-5
4.967949535870001e-5 5.068308773679999e-5 5.170695402580000e-5 5.275150378580000e-5
5.381715485070000e-5 5.490433349510000e-5 5.601347460500000e-5 5.714502185160000e-5
5.829942786880000e-5 5.947715443460001e-5 6.067867265510001e-5 6.190446315380001e-5
6.315501626320000e-5 6.443083222109999e-5 6.573242137099999e-5 6.706030436589999e-5
6.841501237669999e-5 6.979708730460001e-5 7.120708199820001e-5 7.264556047390002e-5
7.411309814250000e-5 7.561028203850001e-5 7.713771105550000e-5 7.869599618540001e-5
8.028576076310001e-5 8.190764071560000e-5 8.356228481639999e-5 8.525035494539999e-5
8.697252635310001e-5 8.872948793090000e-5 9.052194248699998e-5 9.235060702709998e-5
9.421621304129999e-5 9.611950679700000e-5 9.806124963700002e-5 1.000422182840000e-4
1.020632051530000e-4 1.041250186640000e-4 1.062284835720000e-4 1.083744412890000e-4
1.105637502280000e-4 1.127972861410000e-4 1.150759424720000e-4 1.174006307150000e-4
1.197722807750000e-4 1.221918413450000e-4 1.246602802810000e-4 1.271785849900000e-4
1.297477628300000e-4 1.323688415040000e-4 1.350428694810000e-4 1.377709164050000e-4
1.405540735330000e-4 1.433934541650000e-4 1.462901940900000e-4 1.492454520430000e-4
1.522604101680000e-4 1.553362744860000e-4 1.584742753850000e-4 1.616756681080000e-4
1.649417332530000e-4 1.682737772920000e-4 1.716731330840000e-4 1.751411604190000e-4
1.786792465530000e-4 1.822888067690000e-4 1.859712849370000e-4 1.897281541000000e-4
1.935609170530000e-4 1.974711069540000e-4 2.014602879320000e-4 2.055300557100001e-4
2.096820382510000e-4 2.139178964030000e-4 2.182393245660000e-4 2.226480513690000e-4
2.271458403610000e-4 2.317344907180000e-4 2.364158379610000e-4 2.411917546910000e-4
2.460641513390000e-4 2.510349769290000e-4 2.561062198560000e-4 2.612799086870000e-4
2.665581129640000e-4 2.719429440409999e-4 2.774365559220000e-4 2.830411461240000e-4
2.887589565580000e-4 2.945922744250000e-4 3.005434331300000e-4 3.066148132160000e-4
3.128088433150000e-4 3.191280011220000e-4 3.255748143850000e-4 3.321518619140000e-4
3.388617746170000e-4 3.457072365479999e-4 3.526909859830000e-4 3.598158165160000e-4
3.670845781720000e-4 3.745001785540000e-4 3.820655840010000e-4 3.897838207760000e-4
3.976579762770000e-4 4.056912002700000e-4 4.138867061520001e-4 4.222477722360001e-4
4.307777430580001e-4 4.394800307220001e-4 4.483581162570000e-4 4.574155510180001e-4
4.666559580970000e-4 4.760830337820000e-4 4.857005490290000e-4 4.955123509710001e-4
5.055223644600000e-4 5.157345936360000e-4 5.261531235260000e-4 5.367821216799999e-4
5.476258398400001e-4 5.586886156380000e-4 5.699748743320000e-4 5.814891305749999e-4
5.932359902240001e-4 6.052201521780000e-4 6.174464102639999e-4 6.299196551460000e-4
6.426448762890001e-4 6.556271639510001e-4 6.688717112210001e-4 6.823838160930000e-4
6.961688835910000e-4 7.102324279249999e-4 7.245800746990000e-4 7.392175631650000e-4
7.541507485120000e-4 7.693856042140000e-4 7.849282244169999e-4 8.007848263750001e-4
8.169617529400000e-4 8.334654750999999e-4 8.503025945630000e-4 8.674798464020000e-4
8.850041017450000e-4 9.028823705300002e-4 9.211218043010000e-4 9.397296990760001e-4
9.587134982600000e-4 9.780807956269999e-4 9.978393383530001e-4 1.017997030120000e-3
1.038561934270000e-3 1.059542277040000e-3 1.080946450850000e-3 1.102783017660000e-3
1.125060712370000e-3 1.147788446380000e-3 1.170975311060000e-3 1.194630581480000e-3
1.218763720060000e-3 1.243384380390000e-3 1.268502411040000e-3 1.294127859570000e-3
1.320270976500000e-3 1.346942219420000e-3 1.374152257190000e-3 1.401911974190000e-3
1.430232474670000e-3 1.459125087200000e-3 1.488601369230000e-3 1.518673111660000e-3
1.549352343570000e-3 1.580651337090000e-3 1.612582612210000e-3 1.645158941880000e-3
1.678393357070000e-3 1.712299151970000e-3 1.746889889370000e-3 1.782179406010000e-3
1.818181818180000e-3 1.854911527320000e-3 1.892383225800000e-3 1.930611902810000e-3
1.969612850320000e-3 2.009401669230000e-3 2.049994275600000e-3 2.091406907010000e-3
2.133656129080000e-3 2.176758842040000e-3 2.220732287560000e-3 2.265594055610000e-3
2.311362091490000e-3 2.358054703030001e-3 2.405690567890000e-3 2.454288741050000e-3
2.503868662430000e-3 2.554450164660000e-3 2.606053481020000e-3 2.658699253520000e-3
2.712408541170000e-3 2.767202828400000e-3 2.823104033660000e-3 2.880134518170000e-3
2.938317094900000e-3 2.997675037640000e-3 3.058232090360000e-3 3.120012476700000e-3
3.183040909630000e-3 3.247342601359999e-3 3.312943273440000e-3 3.379869166990001e-3
3.448147053280000e-3 3.517804244370000e-3 3.588868604060000e-3 3.661368559040000e-3
3.735333110260000e-3 3.810791844540000e-3 3.887774946360000e-3 3.966313210000000e-3
4.046438051800000e-3 4.128181522790000e-3 4.211576321420000e-3 4.296655806740000e-3
4.383454011670000e-3 4.472005656649999e-3 4.562346163519999e-3 4.654511669689999e-3
4.748539042590000e-3 4.844465894420000e-3 4.942330597200001e-3 5.042172298120001e-3
5.144030935180001e-3 5.247947253210000e-3 5.353962820120000e-3 5.462120043540000e-3
5.572462187810000e-3 5.685033391250000e-3 5.799878683849999e-3 5.917044005249999e-3
6.036576223159999e-3 6.158523152040001e-3 6.282933572300000e-3 6.409857249759999e-3
6.539344955580001e-3 6.671448486580001e-3 6.806220685930001e-3 6.943715464300000e-3
7.083987821450000e-3 7.227093868169999e-3 7.373090848810000e-3 7.522037164089999e-3
7.673992394539999e-3 7.829017324260001e-3 7.987173965310000e-3 8.148525582430000e-3
8.313136718440001e-3 8.481073219980001e-3 8.652402263890000e-3 8.827192384070003e-3
9.005513498899999e-3 9.187436939210000e-3 9.373035476789999e-3 9.562383353540000e-3
9.755556311130000e-3 9.952631621320000e-3 1.015368811690000e-2 1.035880622300000e-2
1.056806798980000e-2 1.078155712470000e-2 1.099935902620000e-2 1.122156081800000e-2
1.144825138370000e-2 1.167952140260000e-2 1.191546338580000e-2 1.215617171320000e-2
1.240174267140000e-2 1.265227449210000e-2 1.290786739120000e-2 1.316862360940000e-2
1.343464745260000e-2 1.370604533390000e-2 1.398292581610000e-2 1.426539965510000e-2
1.455357984420000e-2 1.484758165920000e-2 1.514752270490000e-2 1.545352296160000e-2
1.576570483360000e-2 1.608419319770000e-2 1.640911545350000e-2 1.674060157430000e-2
1.707878415900000e-2 1.742379848500000e-2 1.777578256280000e-2 1.813487719060000e-2
1.850122601100000e-2 1.887497556860000e-2 1.925627536810000e-2 1.964527793440000e-2
2.004213887390000e-2 2.044701693610000e-2 2.086007407780000e-2 2.128147552720000e-2
2.171138985060000e-2 2.214998901950000e-2 2.259744847920000e-2 2.305394721970000e-2
2.351966784640000e-2 2.399479665390000e-2 2.447952370000000e-2 2.497404288200000e-2
2.547855201410000e-2 2.599325290670000e-2 2.651835144710000e-2 2.705405768160000e-2
2.760058589990000e-2 2.815815472060001e-2 2.872698717870001e-2 2.930731081460000e-2
2.989935776560000e-2 3.050336485840000e-2 3.111957370390000e-2 3.174823079380000e-2
3.238958759930000e-2 3.304390067170000e-2 3.371143174500000e-2 3.439244784050000e-2
3.508722137359999e-2 3.579603026320000e-2 3.651915804220001e-2 3.725689397130000e-2
3.800953315470000e-2 3.877737665820000e-2 3.956073162940000e-2 4.035991142080000e-2
4.117523571490000e-2 4.200703065220001e-2 4.285562896189999e-2 4.372137009470000e-2
4.460460035840000e-2 4.550567305700000e-2 4.642494863150000e-2 4.736279480459999e-2
4.831958672700000e-2 4.929570712850000e-2 5.029154646999999e-2 5.130750310070001e-2
5.234398341680000e-2 5.340140202420000e-2 5.448018190440001e-2 5.558075458370000e-2
5.670356030600000e-2 5.784904820850000e-2 5.901767650160000e-2 6.020991265220000e-2
6.142623357060000e-2 6.266712580160000e-2 6.393308571840000e-2 6.522461972189999e-2
6.654224444310000e-2 6.788648694920001e-2 6.925788495530000e-2 7.065698703879999e-2
7.208435285919999e-2 7.354055338190001e-2 7.502617110659999e-2 7.654180030000001e-2
7.808804723410000e-2 7.966553042830000e-2 8.127488089690001e-2 8.291674240150000e-2
8.459177170869999e-2 8.630063885249999e-2 8.804402740240000e-2 8.982263473730001e-2
9.163717232380000e-2 9.348836600099999e-2 9.537695627110001e-2 9.730369859540000e-2
9.926936369660000e-2 1.012747378670000e-1 1.033206232830000e-1 1.054078383250000e-1
1.075372179090000e-1 1.097096138130000e-1 1.119258950260000e-1 1.141869480890000e-1
1.164936774540000e-1 1.188470058440000e-1 1.212478746200000e-1 1.236972441630000e-1
1.261960942520000e-1 1.287454244620000e-1 1.313462545590000e-1 1.339996249080000e-1
1.367065968950000e-1 1.394682533420000e-1 1.422856989510000e-1 1.451600607370000e-1
1.480924884820000e-1 1.510841551970000e-1 1.541362575890000e-1 1.572500165390000e-1
1.604266775920000e-1 1.636675114550000e-1 1.669738145060000e-1 1.703469093080000e-1
1.737881451460000e-1 1.772988985580000e-1 1.808805738940000e-1 1.845346038720000e-1
1.882624501510000e-1 1.920656039210000e-1 1.959455864930000e-1 1.999039499130000e-1
2.039422775780000e-1 2.080621848730000e-1 2.122653198160000e-1 2.165533637180000e-1
2.209280318520000e-1 2.253910741450000e-1 2.299442758730000e-1 2.345894583770000e-1