
     Program PWSCF v.6.8 starts on 27Mar2023 at 18: 4:40 

     This program is part of the open-source Quantum ESPRESSO suite
     for quantum simulation of materials; please cite
         "P. Giannozzi et al., J. Phys.:Condens. Matter 21 395502 (2009);
         "P. Giannozzi et al., J. Phys.:Condens. Matter 29 465901 (2017);
         "P. Giannozzi et al., J. Chem. Phys. 152 154105 (2020);
          URL http://www.quantum-espresso.org", 
     in publications or presentations arising from this work. More details at
     http://www.quantum-espresso.org/quote

     Parallel version (MPI & OpenMP), running on       6 processor cores
     Number of MPI processes:                 6
     Threads/MPI process:                     1

     MPI processes distributed on     1 nodes
     R & G space division:  proc/nbgrp/npool/nimage =       6
     2274 MiB available memory on the printing compute node when the environment starts
 
     Waiting for input...
     Reading input from standard input
Warning: card &CELL ignored
Warning: card / ignored

     Current dimensions of program PWSCF are:
     Max number of different atomic species (ntypx) = 10
     Max number of k-points (npk) =  40000
     Max angular momentum in pseudopotentials (lmaxx) =  4

     Subspace diagonalization in iterative solution of the eigenvalue problem:
     one sub-group per band group will be used
     scalapack distributed-memory algorithm (size of sub-group:  2*  2 procs)

 
     Parallelization info
     --------------------
     sticks:   dense  smooth     PW     G-vecs:    dense   smooth      PW
     Min          65      65     20                 1750     1750     300
     Max          67      67     21                 1755     1755     307
     Sum         397     397    121                10515    10515    1811
 
     Using Slab Decomposition
 


     bravais-lattice index     =            4
     lattice parameter (alat)  =       6.0282  a.u.
     unit-cell volume          =     308.6570 (a.u.)^3
     number of atoms/cell      =            4
     number of atomic types    =            2
     number of electrons       =        36.00
     number of Kohn-Sham states=           18
     kinetic-energy cutoff     =      40.0000  Ry
     charge density cutoff     =     160.0000  Ry
     scf convergence threshold =      1.0E-06
     mixing beta               =       0.7000
     number of iterations used =            8  plain     mixing
     Exchange-correlation= PBE
                           (   1   4   3   4   0   0   0)

     celldm(1)=   6.028226  celldm(2)=   0.000000  celldm(3)=   1.626960
     celldm(4)=   0.000000  celldm(5)=   0.000000  celldm(6)=   0.000000

     crystal axes: (cart. coord. in units of alat)
               a(1) = (   1.000000   0.000000   0.000000 )  
               a(2) = (  -0.500000   0.866025   0.000000 )  
               a(3) = (   0.000000   0.000000   1.626960 )  

     reciprocal axes: (cart. coord. in units 2 pi/alat)
               b(1) = (  1.000000  0.577350  0.000000 )  
               b(2) = (  0.000000  1.154701  0.000000 )  
               b(3) = (  0.000000  0.000000  0.614643 )  


     PseudoPot. # 1 for Ga read from file:
     ../pseudo/Ga_ONCV_PBE_sr.upf
     MD5 check sum: e3654b1fbeb096be7359f640ef9d98d7
     Pseudo is Norm-conserving + core correction, Zval = 13.0
     Generated using ONCVPSP code by D. R. Hamann
     Using radial grid of 1902 points,  6 beta functions with: 
                l(1) =   0
                l(2) =   0
                l(3) =   1
                l(4) =   1
                l(5) =   2
                l(6) =   2

     PseudoPot. # 2 for N  read from file:
     ../pseudo/N_ONCV_PBE_sr.upf
     MD5 check sum: 18c6af81dac9c5a2d6d52ed11cf7bfee
     Pseudo is Norm-conserving + core correction, Zval =  5.0
     Generated using ONCVPSP code by D. R. Hamann
     Using radial grid of 1058 points,  4 beta functions with: 
                l(1) =   0
                l(2) =   0
                l(3) =   1
                l(4) =   1

     atomic species   valence    mass     pseudopotential
        Ga            13.00    69.72300     Ga( 1.00)
        N              5.00    14.00700     N ( 1.00)

     12 Sym. Ops. (no inversion) found ( 6 have fractional translation)


                                    s                        frac. trans.

      isym =  1     identity                                     

 cryst.   s( 1) = (     1          0          0      )
                  (     0          1          0      )
                  (     0          0          1      )

 cart.    s( 1) = (  1.0000000  0.0000000  0.0000000 )
                  (  0.0000000  1.0000000  0.0000000 )
                  (  0.0000000  0.0000000  1.0000000 )


      isym =  2     180 deg rotation - cart. axis [0,0,1]        

 cryst.   s( 2) = (    -1          0          0      )    f =(  0.0000000 )
                  (     0         -1          0      )       (  0.0000000 )
                  (     0          0          1      )       ( -0.5000000 )

 cart.    s( 2) = ( -1.0000000  0.0000000  0.0000000 )    f =(  0.0000000 )
                  (  0.0000000 -1.0000000  0.0000000 )       (  0.0000000 )
                  (  0.0000000  0.0000000  1.0000000 )       ( -0.8134800 )


      isym =  3      60 deg rotation - cryst. axis [0,0,1]       

 cryst.   s( 3) = (     1          1          0      )    f =(  0.0000000 )
                  (    -1          0          0      )       (  0.0000000 )
                  (     0          0          1      )       ( -0.5000000 )

 cart.    s( 3) = (  0.5000000 -0.8660254  0.0000000 )    f =(  0.0000000 )
                  (  0.8660254  0.5000000  0.0000000 )       (  0.0000000 )
                  (  0.0000000  0.0000000  1.0000000 )       ( -0.8134800 )


      isym =  4      60 deg rotation - cryst. axis [0,0,-1]      

 cryst.   s( 4) = (     0         -1          0      )    f =(  0.0000000 )
                  (     1          1          0      )       (  0.0000000 )
                  (     0          0          1      )       ( -0.5000000 )

 cart.    s( 4) = (  0.5000000  0.8660254  0.0000000 )    f =(  0.0000000 )
                  ( -0.8660254  0.5000000  0.0000000 )       (  0.0000000 )
                  (  0.0000000  0.0000000  1.0000000 )       ( -0.8134800 )


      isym =  5     120 deg rotation - cryst. axis [0,0,1]       

 cryst.   s( 5) = (     0          1          0      )
                  (    -1         -1          0      )
                  (     0          0          1      )

 cart.    s( 5) = ( -0.5000000 -0.8660254  0.0000000 )
                  (  0.8660254 -0.5000000  0.0000000 )
                  (  0.0000000  0.0000000  1.0000000 )


      isym =  6     120 deg rotation - cryst. axis [0,0,-1]      

 cryst.   s( 6) = (    -1         -1          0      )
                  (     1          0          0      )
                  (     0          0          1      )

 cart.    s( 6) = ( -0.5000000  0.8660254  0.0000000 )
                  ( -0.8660254 -0.5000000  0.0000000 )
                  (  0.0000000  0.0000000  1.0000000 )


      isym =  7     inv. 180 deg rotation - cart. axis [0,1,0]   

 cryst.   s( 7) = (     1          0          0      )    f =(  0.0000000 )
                  (    -1         -1          0      )       (  0.0000000 )
                  (     0          0          1      )       ( -0.5000000 )

 cart.    s( 7) = (  1.0000000  0.0000000  0.0000000 )    f =(  0.0000000 )
                  (  0.0000000 -1.0000000  0.0000000 )       (  0.0000000 )
                  (  0.0000000  0.0000000  1.0000000 )       ( -0.8134800 )


      isym =  8     inv. 180 deg rotation - cart. axis [1,0,0]   

 cryst.   s( 8) = (    -1          0          0      )
                  (     1          1          0      )
                  (     0          0          1      )

 cart.    s( 8) = ( -1.0000000  0.0000000  0.0000000 )
                  (  0.0000000  1.0000000  0.0000000 )
                  (  0.0000000  0.0000000  1.0000000 )


      isym =  9     inv. 180 deg rotation - cryst. axis [1,-1,0] 

 cryst.   s( 9) = (     0          1          0      )    f =(  0.0000000 )
                  (     1          0          0      )       (  0.0000000 )
                  (     0          0          1      )       ( -0.5000000 )

 cart.    s( 9) = ( -0.5000000  0.8660254  0.0000000 )    f =(  0.0000000 )
                  (  0.8660254  0.5000000  0.0000000 )       (  0.0000000 )
                  (  0.0000000  0.0000000  1.0000000 )       ( -0.8134800 )


      isym = 10     inv. 180 deg rotation - cryst. axis [2,1,0]  

 cryst.   s(10) = (    -1         -1          0      )    f =(  0.0000000 )
                  (     0          1          0      )       (  0.0000000 )
                  (     0          0          1      )       ( -0.5000000 )

 cart.    s(10) = ( -0.5000000 -0.8660254  0.0000000 )    f =(  0.0000000 )
                  ( -0.8660254  0.5000000  0.0000000 )       (  0.0000000 )
                  (  0.0000000  0.0000000  1.0000000 )       ( -0.8134800 )


      isym = 11     inv. 180 deg rotation - cryst. axis [0,1,0]  

 cryst.   s(11) = (     1          1          0      )
                  (     0         -1          0      )
                  (     0          0          1      )

 cart.    s(11) = (  0.5000000  0.8660254  0.0000000 )
                  (  0.8660254 -0.5000000  0.0000000 )
                  (  0.0000000  0.0000000  1.0000000 )


      isym = 12     inv. 180 deg rotation - cryst. axis [1,1,0]  

 cryst.   s(12) = (     0         -1          0      )
                  (    -1          0          0      )
                  (     0          0          1      )

 cart.    s(12) = (  0.5000000 -0.8660254  0.0000000 )
                  ( -0.8660254 -0.5000000  0.0000000 )
                  (  0.0000000  0.0000000  1.0000000 )


     point group C_6v (6mm) 
     there are  6 classes
     the character table:

       E     2C6   2C3   C2    3s_v  3s_d 
A_1    1.00  1.00  1.00  1.00  1.00  1.00
A_2    1.00  1.00  1.00  1.00 -1.00 -1.00
B_1    1.00 -1.00  1.00 -1.00  1.00 -1.00
B_2    1.00 -1.00  1.00 -1.00 -1.00  1.00
E_1    2.00  1.00 -1.00 -2.00  0.00  0.00
E_2    2.00 -1.00 -1.00  2.00  0.00  0.00

     the symmetry operations in each class and the name of the first element:

     E        1
          identity                                               
     2C6      3    4
           60 deg rotation - cryst. axis [0,0,1]                 
     2C3      5    6
          120 deg rotation - cryst. axis [0,0,1]                 
     C2       2
          180 deg rotation - cart. axis [0,0,1]                  
     3s_v     8   12   11
          inv. 180 deg rotation - cart. axis [1,0,0]             
     3s_d     7    9   10
          inv. 180 deg rotation - cart. axis [0,1,0]             

   Cartesian axes

     site n.     atom                  positions (alat units)
         1           Ga  tau(   1) = (   0.5000000   0.2886751   0.8119892  )
         2           Ga  tau(   2) = (   0.0000000   0.5773503   1.6254692  )
         3           N   tau(   3) = (   0.5000000   0.2886751   1.4250808  )
         4           N   tau(   4) = (   0.0000000   0.5773503   0.6116008  )

   Crystallographic axes

     site n.     atom                  positions (cryst. coord.)
         1           Ga  tau(   1) = (  0.6666667  0.3333333  0.4990837  )
         2           Ga  tau(   2) = (  0.3333333  0.6666667  0.9990837  )
         3           N   tau(   3) = (  0.6666667  0.3333333  0.8759163  )
         4           N   tau(   4) = (  0.3333333  0.6666667  0.3759163  )

     number of k points=   484
                       cart. coord. in units 2pi/alat
        k(    1) = (   0.0000000   0.0000000   0.0000000), wk =   0.0002500
        k(    2) = (   0.0000000   0.0000000   0.0307322), wk =   0.0005000
        k(    3) = (   0.0000000   0.0000000   0.0614643), wk =   0.0005000
        k(    4) = (   0.0000000   0.0000000   0.0921965), wk =   0.0005000
        k(    5) = (   0.0000000   0.0000000   0.1229287), wk =   0.0005000
        k(    6) = (   0.0000000   0.0000000   0.1536608), wk =   0.0005000
        k(    7) = (   0.0000000   0.0000000   0.1843930), wk =   0.0005000
        k(    8) = (   0.0000000   0.0000000   0.2151251), wk =   0.0005000
        k(    9) = (   0.0000000   0.0000000   0.2458573), wk =   0.0005000
        k(   10) = (   0.0000000   0.0000000   0.2765895), wk =   0.0005000
        k(   11) = (   0.0000000   0.0000000  -0.3073216), wk =   0.0002500
        k(   12) = (   0.0000000   0.0577350   0.0000000), wk =   0.0015000
        k(   13) = (   0.0000000   0.0577350   0.0307322), wk =   0.0030000
        k(   14) = (   0.0000000   0.0577350   0.0614643), wk =   0.0030000
        k(   15) = (   0.0000000   0.0577350   0.0921965), wk =   0.0030000
        k(   16) = (   0.0000000   0.0577350   0.1229287), wk =   0.0030000
        k(   17) = (   0.0000000   0.0577350   0.1536608), wk =   0.0030000
        k(   18) = (   0.0000000   0.0577350   0.1843930), wk =   0.0030000
        k(   19) = (   0.0000000   0.0577350   0.2151251), wk =   0.0030000
        k(   20) = (   0.0000000   0.0577350   0.2458573), wk =   0.0030000
        k(   21) = (   0.0000000   0.0577350   0.2765895), wk =   0.0030000
        k(   22) = (   0.0000000   0.0577350  -0.3073216), wk =   0.0015000
        k(   23) = (   0.0000000   0.1154701   0.0000000), wk =   0.0015000
        k(   24) = (   0.0000000   0.1154701   0.0307322), wk =   0.0030000
        k(   25) = (   0.0000000   0.1154701   0.0614643), wk =   0.0030000
        k(   26) = (   0.0000000   0.1154701   0.0921965), wk =   0.0030000
        k(   27) = (   0.0000000   0.1154701   0.1229287), wk =   0.0030000
        k(   28) = (   0.0000000   0.1154701   0.1536608), wk =   0.0030000
        k(   29) = (   0.0000000   0.1154701   0.1843930), wk =   0.0030000
        k(   30) = (   0.0000000   0.1154701   0.2151251), wk =   0.0030000
        k(   31) = (   0.0000000   0.1154701   0.2458573), wk =   0.0030000
        k(   32) = (   0.0000000   0.1154701   0.2765895), wk =   0.0030000
        k(   33) = (   0.0000000   0.1154701  -0.3073216), wk =   0.0015000
        k(   34) = (   0.0000000   0.1732051   0.0000000), wk =   0.0015000
        k(   35) = (   0.0000000   0.1732051   0.0307322), wk =   0.0030000
        k(   36) = (   0.0000000   0.1732051   0.0614643), wk =   0.0030000
        k(   37) = (   0.0000000   0.1732051   0.0921965), wk =   0.0030000
        k(   38) = (   0.0000000   0.1732051   0.1229287), wk =   0.0030000
        k(   39) = (   0.0000000   0.1732051   0.1536608), wk =   0.0030000
        k(   40) = (   0.0000000   0.1732051   0.1843930), wk =   0.0030000
        k(   41) = (   0.0000000   0.1732051   0.2151251), wk =   0.0030000
        k(   42) = (   0.0000000   0.1732051   0.2458573), wk =   0.0030000
        k(   43) = (   0.0000000   0.1732051   0.2765895), wk =   0.0030000
        k(   44) = (   0.0000000   0.1732051  -0.3073216), wk =   0.0015000
        k(   45) = (   0.0000000   0.2309401   0.0000000), wk =   0.0015000
        k(   46) = (   0.0000000   0.2309401   0.0307322), wk =   0.0030000
        k(   47) = (   0.0000000   0.2309401   0.0614643), wk =   0.0030000
        k(   48) = (   0.0000000   0.2309401   0.0921965), wk =   0.0030000
        k(   49) = (   0.0000000   0.2309401   0.1229287), wk =   0.0030000
        k(   50) = (   0.0000000   0.2309401   0.1536608), wk =   0.0030000
        k(   51) = (   0.0000000   0.2309401   0.1843930), wk =   0.0030000
        k(   52) = (   0.0000000   0.2309401   0.2151251), wk =   0.0030000
        k(   53) = (   0.0000000   0.2309401   0.2458573), wk =   0.0030000
        k(   54) = (   0.0000000   0.2309401   0.2765895), wk =   0.0030000
        k(   55) = (   0.0000000   0.2309401  -0.3073216), wk =   0.0015000
        k(   56) = (   0.0000000   0.2886751   0.0000000), wk =   0.0015000
        k(   57) = (   0.0000000   0.2886751   0.0307322), wk =   0.0030000
        k(   58) = (   0.0000000   0.2886751   0.0614643), wk =   0.0030000
        k(   59) = (   0.0000000   0.2886751   0.0921965), wk =   0.0030000
        k(   60) = (   0.0000000   0.2886751   0.1229287), wk =   0.0030000
        k(   61) = (   0.0000000   0.2886751   0.1536608), wk =   0.0030000
        k(   62) = (   0.0000000   0.2886751   0.1843930), wk =   0.0030000
        k(   63) = (   0.0000000   0.2886751   0.2151251), wk =   0.0030000
        k(   64) = (   0.0000000   0.2886751   0.2458573), wk =   0.0030000
        k(   65) = (   0.0000000   0.2886751   0.2765895), wk =   0.0030000
        k(   66) = (   0.0000000   0.2886751  -0.3073216), wk =   0.0015000
        k(   67) = (   0.0000000   0.3464102   0.0000000), wk =   0.0015000
        k(   68) = (   0.0000000   0.3464102   0.0307322), wk =   0.0030000
        k(   69) = (   0.0000000   0.3464102   0.0614643), wk =   0.0030000
        k(   70) = (   0.0000000   0.3464102   0.0921965), wk =   0.0030000
        k(   71) = (   0.0000000   0.3464102   0.1229287), wk =   0.0030000
        k(   72) = (   0.0000000   0.3464102   0.1536608), wk =   0.0030000
        k(   73) = (   0.0000000   0.3464102   0.1843930), wk =   0.0030000
        k(   74) = (   0.0000000   0.3464102   0.2151251), wk =   0.0030000
        k(   75) = (   0.0000000   0.3464102   0.2458573), wk =   0.0030000
        k(   76) = (   0.0000000   0.3464102   0.2765895), wk =   0.0030000
        k(   77) = (   0.0000000   0.3464102  -0.3073216), wk =   0.0015000
        k(   78) = (   0.0000000   0.4041452   0.0000000), wk =   0.0015000
        k(   79) = (   0.0000000   0.4041452   0.0307322), wk =   0.0030000
        k(   80) = (   0.0000000   0.4041452   0.0614643), wk =   0.0030000
        k(   81) = (   0.0000000   0.4041452   0.0921965), wk =   0.0030000
        k(   82) = (   0.0000000   0.4041452   0.1229287), wk =   0.0030000
        k(   83) = (   0.0000000   0.4041452   0.1536608), wk =   0.0030000
        k(   84) = (   0.0000000   0.4041452   0.1843930), wk =   0.0030000
        k(   85) = (   0.0000000   0.4041452   0.2151251), wk =   0.0030000
        k(   86) = (   0.0000000   0.4041452   0.2458573), wk =   0.0030000
        k(   87) = (   0.0000000   0.4041452   0.2765895), wk =   0.0030000
        k(   88) = (   0.0000000   0.4041452  -0.3073216), wk =   0.0015000
        k(   89) = (   0.0000000   0.4618802   0.0000000), wk =   0.0015000
        k(   90) = (   0.0000000   0.4618802   0.0307322), wk =   0.0030000
        k(   91) = (   0.0000000   0.4618802   0.0614643), wk =   0.0030000
        k(   92) = (   0.0000000   0.4618802   0.0921965), wk =   0.0030000
        k(   93) = (   0.0000000   0.4618802   0.1229287), wk =   0.0030000
        k(   94) = (   0.0000000   0.4618802   0.1536608), wk =   0.0030000
        k(   95) = (   0.0000000   0.4618802   0.1843930), wk =   0.0030000
        k(   96) = (   0.0000000   0.4618802   0.2151251), wk =   0.0030000
        k(   97) = (   0.0000000   0.4618802   0.2458573), wk =   0.0030000
        k(   98) = (   0.0000000   0.4618802   0.2765895), wk =   0.0030000
        k(   99) = (   0.0000000   0.4618802  -0.3073216), wk =   0.0015000
        k(  100) = (   0.0000000   0.5196152   0.0000000), wk =   0.0015000
        k(  101) = (   0.0000000   0.5196152   0.0307322), wk =   0.0030000
        k(  102) = (   0.0000000   0.5196152   0.0614643), wk =   0.0030000
        k(  103) = (   0.0000000   0.5196152   0.0921965), wk =   0.0030000
        k(  104) = (   0.0000000   0.5196152   0.1229287), wk =   0.0030000
        k(  105) = (   0.0000000   0.5196152   0.1536608), wk =   0.0030000
        k(  106) = (   0.0000000   0.5196152   0.1843930), wk =   0.0030000
        k(  107) = (   0.0000000   0.5196152   0.2151251), wk =   0.0030000
        k(  108) = (   0.0000000   0.5196152   0.2458573), wk =   0.0030000
        k(  109) = (   0.0000000   0.5196152   0.2765895), wk =   0.0030000
        k(  110) = (   0.0000000   0.5196152  -0.3073216), wk =   0.0015000
        k(  111) = (   0.0000000  -0.5773503   0.0000000), wk =   0.0007500
        k(  112) = (   0.0000000  -0.5773503   0.0307322), wk =   0.0015000
        k(  113) = (   0.0000000  -0.5773503   0.0614643), wk =   0.0015000
        k(  114) = (   0.0000000  -0.5773503   0.0921965), wk =   0.0015000
        k(  115) = (   0.0000000  -0.5773503   0.1229287), wk =   0.0015000
        k(  116) = (   0.0000000  -0.5773503   0.1536608), wk =   0.0015000
        k(  117) = (   0.0000000  -0.5773503   0.1843930), wk =   0.0015000
        k(  118) = (   0.0000000  -0.5773503   0.2151251), wk =   0.0015000
        k(  119) = (   0.0000000  -0.5773503   0.2458573), wk =   0.0015000
        k(  120) = (   0.0000000  -0.5773503   0.2765895), wk =   0.0015000
        k(  121) = (   0.0000000  -0.5773503  -0.3073216), wk =   0.0007500
        k(  122) = (   0.0500000   0.0866025   0.0000000), wk =   0.0015000
        k(  123) = (   0.0500000   0.0866025   0.0307322), wk =   0.0030000
        k(  124) = (   0.0500000   0.0866025   0.0614643), wk =   0.0030000
        k(  125) = (   0.0500000   0.0866025   0.0921965), wk =   0.0030000
        k(  126) = (   0.0500000   0.0866025   0.1229287), wk =   0.0030000
        k(  127) = (   0.0500000   0.0866025   0.1536608), wk =   0.0030000
        k(  128) = (   0.0500000   0.0866025   0.1843930), wk =   0.0030000
        k(  129) = (   0.0500000   0.0866025   0.2151251), wk =   0.0030000
        k(  130) = (   0.0500000   0.0866025   0.2458573), wk =   0.0030000
        k(  131) = (   0.0500000   0.0866025   0.2765895), wk =   0.0030000
        k(  132) = (   0.0500000   0.0866025  -0.3073216), wk =   0.0015000
        k(  133) = (   0.0500000   0.1443376   0.0000000), wk =   0.0030000
        k(  134) = (   0.0500000   0.1443376   0.0307322), wk =   0.0060000
        k(  135) = (   0.0500000   0.1443376   0.0614643), wk =   0.0060000
        k(  136) = (   0.0500000   0.1443376   0.0921965), wk =   0.0060000
        k(  137) = (   0.0500000   0.1443376   0.1229287), wk =   0.0060000
        k(  138) = (   0.0500000   0.1443376   0.1536608), wk =   0.0060000
        k(  139) = (   0.0500000   0.1443376   0.1843930), wk =   0.0060000
        k(  140) = (   0.0500000   0.1443376   0.2151251), wk =   0.0060000
        k(  141) = (   0.0500000   0.1443376   0.2458573), wk =   0.0060000
        k(  142) = (   0.0500000   0.1443376   0.2765895), wk =   0.0060000
        k(  143) = (   0.0500000   0.1443376  -0.3073216), wk =   0.0030000
        k(  144) = (   0.0500000   0.2020726   0.0000000), wk =   0.0030000
        k(  145) = (   0.0500000   0.2020726   0.0307322), wk =   0.0060000
        k(  146) = (   0.0500000   0.2020726   0.0614643), wk =   0.0060000
        k(  147) = (   0.0500000   0.2020726   0.0921965), wk =   0.0060000
        k(  148) = (   0.0500000   0.2020726   0.1229287), wk =   0.0060000
        k(  149) = (   0.0500000   0.2020726   0.1536608), wk =   0.0060000
        k(  150) = (   0.0500000   0.2020726   0.1843930), wk =   0.0060000
        k(  151) = (   0.0500000   0.2020726   0.2151251), wk =   0.0060000
        k(  152) = (   0.0500000   0.2020726   0.2458573), wk =   0.0060000
        k(  153) = (   0.0500000   0.2020726   0.2765895), wk =   0.0060000
        k(  154) = (   0.0500000   0.2020726  -0.3073216), wk =   0.0030000
        k(  155) = (   0.0500000   0.2598076   0.0000000), wk =   0.0030000
        k(  156) = (   0.0500000   0.2598076   0.0307322), wk =   0.0060000
        k(  157) = (   0.0500000   0.2598076   0.0614643), wk =   0.0060000
        k(  158) = (   0.0500000   0.2598076   0.0921965), wk =   0.0060000
        k(  159) = (   0.0500000   0.2598076   0.1229287), wk =   0.0060000
        k(  160) = (   0.0500000   0.2598076   0.1536608), wk =   0.0060000
        k(  161) = (   0.0500000   0.2598076   0.1843930), wk =   0.0060000
        k(  162) = (   0.0500000   0.2598076   0.2151251), wk =   0.0060000
        k(  163) = (   0.0500000   0.2598076   0.2458573), wk =   0.0060000
        k(  164) = (   0.0500000   0.2598076   0.2765895), wk =   0.0060000
        k(  165) = (   0.0500000   0.2598076  -0.3073216), wk =   0.0030000
        k(  166) = (   0.0500000   0.3175426   0.0000000), wk =   0.0030000
        k(  167) = (   0.0500000   0.3175426   0.0307322), wk =   0.0060000
        k(  168) = (   0.0500000   0.3175426   0.0614643), wk =   0.0060000
        k(  169) = (   0.0500000   0.3175426   0.0921965), wk =   0.0060000
        k(  170) = (   0.0500000   0.3175426   0.1229287), wk =   0.0060000
        k(  171) = (   0.0500000   0.3175426   0.1536608), wk =   0.0060000
        k(  172) = (   0.0500000   0.3175426   0.1843930), wk =   0.0060000
        k(  173) = (   0.0500000   0.3175426   0.2151251), wk =   0.0060000
        k(  174) = (   0.0500000   0.3175426   0.2458573), wk =   0.0060000
        k(  175) = (   0.0500000   0.3175426   0.2765895), wk =   0.0060000
        k(  176) = (   0.0500000   0.3175426  -0.3073216), wk =   0.0030000
        k(  177) = (   0.0500000   0.3752777   0.0000000), wk =   0.0030000
        k(  178) = (   0.0500000   0.3752777   0.0307322), wk =   0.0060000
        k(  179) = (   0.0500000   0.3752777   0.0614643), wk =   0.0060000
        k(  180) = (   0.0500000   0.3752777   0.0921965), wk =   0.0060000
        k(  181) = (   0.0500000   0.3752777   0.1229287), wk =   0.0060000
        k(  182) = (   0.0500000   0.3752777   0.1536608), wk =   0.0060000
        k(  183) = (   0.0500000   0.3752777   0.1843930), wk =   0.0060000
        k(  184) = (   0.0500000   0.3752777   0.2151251), wk =   0.0060000
        k(  185) = (   0.0500000   0.3752777   0.2458573), wk =   0.0060000
        k(  186) = (   0.0500000   0.3752777   0.2765895), wk =   0.0060000
        k(  187) = (   0.0500000   0.3752777  -0.3073216), wk =   0.0030000
        k(  188) = (   0.0500000   0.4330127   0.0000000), wk =   0.0030000
        k(  189) = (   0.0500000   0.4330127   0.0307322), wk =   0.0060000
        k(  190) = (   0.0500000   0.4330127   0.0614643), wk =   0.0060000
        k(  191) = (   0.0500000   0.4330127   0.0921965), wk =   0.0060000
        k(  192) = (   0.0500000   0.4330127   0.1229287), wk =   0.0060000
        k(  193) = (   0.0500000   0.4330127   0.1536608), wk =   0.0060000
        k(  194) = (   0.0500000   0.4330127   0.1843930), wk =   0.0060000
        k(  195) = (   0.0500000   0.4330127   0.2151251), wk =   0.0060000
        k(  196) = (   0.0500000   0.4330127   0.2458573), wk =   0.0060000
        k(  197) = (   0.0500000   0.4330127   0.2765895), wk =   0.0060000
        k(  198) = (   0.0500000   0.4330127  -0.3073216), wk =   0.0030000
        k(  199) = (   0.0500000   0.4907477   0.0000000), wk =   0.0030000
        k(  200) = (   0.0500000   0.4907477   0.0307322), wk =   0.0060000
        k(  201) = (   0.0500000   0.4907477   0.0614643), wk =   0.0060000
        k(  202) = (   0.0500000   0.4907477   0.0921965), wk =   0.0060000
        k(  203) = (   0.0500000   0.4907477   0.1229287), wk =   0.0060000
        k(  204) = (   0.0500000   0.4907477   0.1536608), wk =   0.0060000
        k(  205) = (   0.0500000   0.4907477   0.1843930), wk =   0.0060000
        k(  206) = (   0.0500000   0.4907477   0.2151251), wk =   0.0060000
        k(  207) = (   0.0500000   0.4907477   0.2458573), wk =   0.0060000
        k(  208) = (   0.0500000   0.4907477   0.2765895), wk =   0.0060000
        k(  209) = (   0.0500000   0.4907477  -0.3073216), wk =   0.0030000
        k(  210) = (   0.0500000   0.5484828   0.0000000), wk =   0.0030000
        k(  211) = (   0.0500000   0.5484828   0.0307322), wk =   0.0060000
        k(  212) = (   0.0500000   0.5484828   0.0614643), wk =   0.0060000
        k(  213) = (   0.0500000   0.5484828   0.0921965), wk =   0.0060000
        k(  214) = (   0.0500000   0.5484828   0.1229287), wk =   0.0060000
        k(  215) = (   0.0500000   0.5484828   0.1536608), wk =   0.0060000
        k(  216) = (   0.0500000   0.5484828   0.1843930), wk =   0.0060000
        k(  217) = (   0.0500000   0.5484828   0.2151251), wk =   0.0060000
        k(  218) = (   0.0500000   0.5484828   0.2458573), wk =   0.0060000
        k(  219) = (   0.0500000   0.5484828   0.2765895), wk =   0.0060000
        k(  220) = (   0.0500000   0.5484828  -0.3073216), wk =   0.0030000
        k(  221) = (   0.1000000   0.1732051   0.0000000), wk =   0.0015000
        k(  222) = (   0.1000000   0.1732051   0.0307322), wk =   0.0030000
        k(  223) = (   0.1000000   0.1732051   0.0614643), wk =   0.0030000
        k(  224) = (   0.1000000   0.1732051   0.0921965), wk =   0.0030000
        k(  225) = (   0.1000000   0.1732051   0.1229287), wk =   0.0030000
        k(  226) = (   0.1000000   0.1732051   0.1536608), wk =   0.0030000
        k(  227) = (   0.1000000   0.1732051   0.1843930), wk =   0.0030000
        k(  228) = (   0.1000000   0.1732051   0.2151251), wk =   0.0030000
        k(  229) = (   0.1000000   0.1732051   0.2458573), wk =   0.0030000
        k(  230) = (   0.1000000   0.1732051   0.2765895), wk =   0.0030000
        k(  231) = (   0.1000000   0.1732051  -0.3073216), wk =   0.0015000
        k(  232) = (   0.1000000   0.2309401   0.0000000), wk =   0.0030000
        k(  233) = (   0.1000000   0.2309401   0.0307322), wk =   0.0060000
        k(  234) = (   0.1000000   0.2309401   0.0614643), wk =   0.0060000
        k(  235) = (   0.1000000   0.2309401   0.0921965), wk =   0.0060000
        k(  236) = (   0.1000000   0.2309401   0.1229287), wk =   0.0060000
        k(  237) = (   0.1000000   0.2309401   0.1536608), wk =   0.0060000
        k(  238) = (   0.1000000   0.2309401   0.1843930), wk =   0.0060000
        k(  239) = (   0.1000000   0.2309401   0.2151251), wk =   0.0060000
        k(  240) = (   0.1000000   0.2309401   0.2458573), wk =   0.0060000
        k(  241) = (   0.1000000   0.2309401   0.2765895), wk =   0.0060000
        k(  242) = (   0.1000000   0.2309401  -0.3073216), wk =   0.0030000
        k(  243) = (   0.1000000   0.2886751   0.0000000), wk =   0.0030000
        k(  244) = (   0.1000000   0.2886751   0.0307322), wk =   0.0060000
        k(  245) = (   0.1000000   0.2886751   0.0614643), wk =   0.0060000
        k(  246) = (   0.1000000   0.2886751   0.0921965), wk =   0.0060000
        k(  247) = (   0.1000000   0.2886751   0.1229287), wk =   0.0060000
        k(  248) = (   0.1000000   0.2886751   0.1536608), wk =   0.0060000
        k(  249) = (   0.1000000   0.2886751   0.1843930), wk =   0.0060000
        k(  250) = (   0.1000000   0.2886751   0.2151251), wk =   0.0060000
        k(  251) = (   0.1000000   0.2886751   0.2458573), wk =   0.0060000
        k(  252) = (   0.1000000   0.2886751   0.2765895), wk =   0.0060000
        k(  253) = (   0.1000000   0.2886751  -0.3073216), wk =   0.0030000
        k(  254) = (   0.1000000   0.3464102   0.0000000), wk =   0.0030000
        k(  255) = (   0.1000000   0.3464102   0.0307322), wk =   0.0060000
        k(  256) = (   0.1000000   0.3464102   0.0614643), wk =   0.0060000
        k(  257) = (   0.1000000   0.3464102   0.0921965), wk =   0.0060000
        k(  258) = (   0.1000000   0.3464102   0.1229287), wk =   0.0060000
        k(  259) = (   0.1000000   0.3464102   0.1536608), wk =   0.0060000
        k(  260) = (   0.1000000   0.3464102   0.1843930), wk =   0.0060000
        k(  261) = (   0.1000000   0.3464102   0.2151251), wk =   0.0060000
        k(  262) = (   0.1000000   0.3464102   0.2458573), wk =   0.0060000
        k(  263) = (   0.1000000   0.3464102   0.2765895), wk =   0.0060000
        k(  264) = (   0.1000000   0.3464102  -0.3073216), wk =   0.0030000
        k(  265) = (   0.1000000   0.4041452   0.0000000), wk =   0.0030000
        k(  266) = (   0.1000000   0.4041452   0.0307322), wk =   0.0060000
        k(  267) = (   0.1000000   0.4041452   0.0614643), wk =   0.0060000
        k(  268) = (   0.1000000   0.4041452   0.0921965), wk =   0.0060000
        k(  269) = (   0.1000000   0.4041452   0.1229287), wk =   0.0060000
        k(  270) = (   0.1000000   0.4041452   0.1536608), wk =   0.0060000
        k(  271) = (   0.1000000   0.4041452   0.1843930), wk =   0.0060000
        k(  272) = (   0.1000000   0.4041452   0.2151251), wk =   0.0060000
        k(  273) = (   0.1000000   0.4041452   0.2458573), wk =   0.0060000
        k(  274) = (   0.1000000   0.4041452   0.2765895), wk =   0.0060000
        k(  275) = (   0.1000000   0.4041452  -0.3073216), wk =   0.0030000
        k(  276) = (   0.1000000   0.4618802   0.0000000), wk =   0.0030000
        k(  277) = (   0.1000000   0.4618802   0.0307322), wk =   0.0060000
        k(  278) = (   0.1000000   0.4618802   0.0614643), wk =   0.0060000
        k(  279) = (   0.1000000   0.4618802   0.0921965), wk =   0.0060000
        k(  280) = (   0.1000000   0.4618802   0.1229287), wk =   0.0060000
        k(  281) = (   0.1000000   0.4618802   0.1536608), wk =   0.0060000
        k(  282) = (   0.1000000   0.4618802   0.1843930), wk =   0.0060000
        k(  283) = (   0.1000000   0.4618802   0.2151251), wk =   0.0060000
        k(  284) = (   0.1000000   0.4618802   0.2458573), wk =   0.0060000
        k(  285) = (   0.1000000   0.4618802   0.2765895), wk =   0.0060000
        k(  286) = (   0.1000000   0.4618802  -0.3073216), wk =   0.0030000
        k(  287) = (   0.1000000   0.5196152   0.0000000), wk =   0.0030000
        k(  288) = (   0.1000000   0.5196152   0.0307322), wk =   0.0060000
        k(  289) = (   0.1000000   0.5196152   0.0614643), wk =   0.0060000
        k(  290) = (   0.1000000   0.5196152   0.0921965), wk =   0.0060000
        k(  291) = (   0.1000000   0.5196152   0.1229287), wk =   0.0060000
        k(  292) = (   0.1000000   0.5196152   0.1536608), wk =   0.0060000
        k(  293) = (   0.1000000   0.5196152   0.1843930), wk =   0.0060000
        k(  294) = (   0.1000000   0.5196152   0.2151251), wk =   0.0060000
        k(  295) = (   0.1000000   0.5196152   0.2458573), wk =   0.0060000
        k(  296) = (   0.1000000   0.5196152   0.2765895), wk =   0.0060000
        k(  297) = (   0.1000000   0.5196152  -0.3073216), wk =   0.0030000
        k(  298) = (   0.1000000   0.5773503   0.0000000), wk =   0.0015000
        k(  299) = (   0.1000000   0.5773503   0.0307322), wk =   0.0030000
        k(  300) = (   0.1000000   0.5773503   0.0614643), wk =   0.0030000
        k(  301) = (   0.1000000   0.5773503   0.0921965), wk =   0.0030000
        k(  302) = (   0.1000000   0.5773503   0.1229287), wk =   0.0030000
        k(  303) = (   0.1000000   0.5773503   0.1536608), wk =   0.0030000
        k(  304) = (   0.1000000   0.5773503   0.1843930), wk =   0.0030000
        k(  305) = (   0.1000000   0.5773503   0.2151251), wk =   0.0030000
        k(  306) = (   0.1000000   0.5773503   0.2458573), wk =   0.0030000
        k(  307) = (   0.1000000   0.5773503   0.2765895), wk =   0.0030000
        k(  308) = (   0.1000000   0.5773503  -0.3073216), wk =   0.0015000
        k(  309) = (   0.1500000   0.2598076   0.0000000), wk =   0.0015000
        k(  310) = (   0.1500000   0.2598076   0.0307322), wk =   0.0030000
        k(  311) = (   0.1500000   0.2598076   0.0614643), wk =   0.0030000
        k(  312) = (   0.1500000   0.2598076   0.0921965), wk =   0.0030000
        k(  313) = (   0.1500000   0.2598076   0.1229287), wk =   0.0030000
        k(  314) = (   0.1500000   0.2598076   0.1536608), wk =   0.0030000
        k(  315) = (   0.1500000   0.2598076   0.1843930), wk =   0.0030000
        k(  316) = (   0.1500000   0.2598076   0.2151251), wk =   0.0030000
        k(  317) = (   0.1500000   0.2598076   0.2458573), wk =   0.0030000
        k(  318) = (   0.1500000   0.2598076   0.2765895), wk =   0.0030000
        k(  319) = (   0.1500000   0.2598076  -0.3073216), wk =   0.0015000
        k(  320) = (   0.1500000   0.3175426   0.0000000), wk =   0.0030000
        k(  321) = (   0.1500000   0.3175426   0.0307322), wk =   0.0060000
        k(  322) = (   0.1500000   0.3175426   0.0614643), wk =   0.0060000
        k(  323) = (   0.1500000   0.3175426   0.0921965), wk =   0.0060000
        k(  324) = (   0.1500000   0.3175426   0.1229287), wk =   0.0060000
        k(  325) = (   0.1500000   0.3175426   0.1536608), wk =   0.0060000
        k(  326) = (   0.1500000   0.3175426   0.1843930), wk =   0.0060000
        k(  327) = (   0.1500000   0.3175426   0.2151251), wk =   0.0060000
        k(  328) = (   0.1500000   0.3175426   0.2458573), wk =   0.0060000
        k(  329) = (   0.1500000   0.3175426   0.2765895), wk =   0.0060000
        k(  330) = (   0.1500000   0.3175426  -0.3073216), wk =   0.0030000
        k(  331) = (   0.1500000   0.3752777   0.0000000), wk =   0.0030000
        k(  332) = (   0.1500000   0.3752777   0.0307322), wk =   0.0060000
        k(  333) = (   0.1500000   0.3752777   0.0614643), wk =   0.0060000
        k(  334) = (   0.1500000   0.3752777   0.0921965), wk =   0.0060000
        k(  335) = (   0.1500000   0.3752777   0.1229287), wk =   0.0060000
        k(  336) = (   0.1500000   0.3752777   0.1536608), wk =   0.0060000
        k(  337) = (   0.1500000   0.3752777   0.1843930), wk =   0.0060000
        k(  338) = (   0.1500000   0.3752777   0.2151251), wk =   0.0060000
        k(  339) = (   0.1500000   0.3752777   0.2458573), wk =   0.0060000
        k(  340) = (   0.1500000   0.3752777   0.2765895), wk =   0.0060000
        k(  341) = (   0.1500000   0.3752777  -0.3073216), wk =   0.0030000
        k(  342) = (   0.1500000   0.4330127   0.0000000), wk =   0.0030000
        k(  343) = (   0.1500000   0.4330127   0.0307322), wk =   0.0060000
        k(  344) = (   0.1500000   0.4330127   0.0614643), wk =   0.0060000
        k(  345) = (   0.1500000   0.4330127   0.0921965), wk =   0.0060000
        k(  346) = (   0.1500000   0.4330127   0.1229287), wk =   0.0060000
        k(  347) = (   0.1500000   0.4330127   0.1536608), wk =   0.0060000
        k(  348) = (   0.1500000   0.4330127   0.1843930), wk =   0.0060000
        k(  349) = (   0.1500000   0.4330127   0.2151251), wk =   0.0060000
        k(  350) = (   0.1500000   0.4330127   0.2458573), wk =   0.0060000
        k(  351) = (   0.1500000   0.4330127   0.2765895), wk =   0.0060000
        k(  352) = (   0.1500000   0.4330127  -0.3073216), wk =   0.0030000
        k(  353) = (   0.1500000   0.4907477   0.0000000), wk =   0.0030000
        k(  354) = (   0.1500000   0.4907477   0.0307322), wk =   0.0060000
        k(  355) = (   0.1500000   0.4907477   0.0614643), wk =   0.0060000
        k(  356) = (   0.1500000   0.4907477   0.0921965), wk =   0.0060000
        k(  357) = (   0.1500000   0.4907477   0.1229287), wk =   0.0060000
        k(  358) = (   0.1500000   0.4907477   0.1536608), wk =   0.0060000
        k(  359) = (   0.1500000   0.4907477   0.1843930), wk =   0.0060000
        k(  360) = (   0.1500000   0.4907477   0.2151251), wk =   0.0060000
        k(  361) = (   0.1500000   0.4907477   0.2458573), wk =   0.0060000
        k(  362) = (   0.1500000   0.4907477   0.2765895), wk =   0.0060000
        k(  363) = (   0.1500000   0.4907477  -0.3073216), wk =   0.0030000
        k(  364) = (   0.1500000   0.5484828   0.0000000), wk =   0.0030000
        k(  365) = (   0.1500000   0.5484828   0.0307322), wk =   0.0060000
        k(  366) = (   0.1500000   0.5484828   0.0614643), wk =   0.0060000
        k(  367) = (   0.1500000   0.5484828   0.0921965), wk =   0.0060000
        k(  368) = (   0.1500000   0.5484828   0.1229287), wk =   0.0060000
        k(  369) = (   0.1500000   0.5484828   0.1536608), wk =   0.0060000
        k(  370) = (   0.1500000   0.5484828   0.1843930), wk =   0.0060000
        k(  371) = (   0.1500000   0.5484828   0.2151251), wk =   0.0060000
        k(  372) = (   0.1500000   0.5484828   0.2458573), wk =   0.0060000
        k(  373) = (   0.1500000   0.5484828   0.2765895), wk =   0.0060000
        k(  374) = (   0.1500000   0.5484828  -0.3073216), wk =   0.0030000
        k(  375) = (   0.2000000   0.3464102   0.0000000), wk =   0.0015000
        k(  376) = (   0.2000000   0.3464102   0.0307322), wk =   0.0030000
        k(  377) = (   0.2000000   0.3464102   0.0614643), wk =   0.0030000
        k(  378) = (   0.2000000   0.3464102   0.0921965), wk =   0.0030000
        k(  379) = (   0.2000000   0.3464102   0.1229287), wk =   0.0030000
        k(  380) = (   0.2000000   0.3464102   0.1536608), wk =   0.0030000
        k(  381) = (   0.2000000   0.3464102   0.1843930), wk =   0.0030000
        k(  382) = (   0.2000000   0.3464102   0.2151251), wk =   0.0030000
        k(  383) = (   0.2000000   0.3464102   0.2458573), wk =   0.0030000
        k(  384) = (   0.2000000   0.3464102   0.2765895), wk =   0.0030000
        k(  385) = (   0.2000000   0.3464102  -0.3073216), wk =   0.0015000
        k(  386) = (   0.2000000   0.4041452   0.0000000), wk =   0.0030000
        k(  387) = (   0.2000000   0.4041452   0.0307322), wk =   0.0060000
        k(  388) = (   0.2000000   0.4041452   0.0614643), wk =   0.0060000
        k(  389) = (   0.2000000   0.4041452   0.0921965), wk =   0.0060000
        k(  390) = (   0.2000000   0.4041452   0.1229287), wk =   0.0060000
        k(  391) = (   0.2000000   0.4041452   0.1536608), wk =   0.0060000
        k(  392) = (   0.2000000   0.4041452   0.1843930), wk =   0.0060000
        k(  393) = (   0.2000000   0.4041452   0.2151251), wk =   0.0060000
        k(  394) = (   0.2000000   0.4041452   0.2458573), wk =   0.0060000
        k(  395) = (   0.2000000   0.4041452   0.2765895), wk =   0.0060000
        k(  396) = (   0.2000000   0.4041452  -0.3073216), wk =   0.0030000
        k(  397) = (   0.2000000   0.4618802   0.0000000), wk =   0.0030000
        k(  398) = (   0.2000000   0.4618802   0.0307322), wk =   0.0060000
        k(  399) = (   0.2000000   0.4618802   0.0614643), wk =   0.0060000
        k(  400) = (   0.2000000   0.4618802   0.0921965), wk =   0.0060000
        k(  401) = (   0.2000000   0.4618802   0.1229287), wk =   0.0060000
        k(  402) = (   0.2000000   0.4618802   0.1536608), wk =   0.0060000
        k(  403) = (   0.2000000   0.4618802   0.1843930), wk =   0.0060000
        k(  404) = (   0.2000000   0.4618802   0.2151251), wk =   0.0060000
        k(  405) = (   0.2000000   0.4618802   0.2458573), wk =   0.0060000
        k(  406) = (   0.2000000   0.4618802   0.2765895), wk =   0.0060000
        k(  407) = (   0.2000000   0.4618802  -0.3073216), wk =   0.0030000
        k(  408) = (   0.2000000   0.5196152   0.0000000), wk =   0.0030000
        k(  409) = (   0.2000000   0.5196152   0.0307322), wk =   0.0060000
        k(  410) = (   0.2000000   0.5196152   0.0614643), wk =   0.0060000
        k(  411) = (   0.2000000   0.5196152   0.0921965), wk =   0.0060000
        k(  412) = (   0.2000000   0.5196152   0.1229287), wk =   0.0060000
        k(  413) = (   0.2000000   0.5196152   0.1536608), wk =   0.0060000
        k(  414) = (   0.2000000   0.5196152   0.1843930), wk =   0.0060000
        k(  415) = (   0.2000000   0.5196152   0.2151251), wk =   0.0060000
        k(  416) = (   0.2000000   0.5196152   0.2458573), wk =   0.0060000
        k(  417) = (   0.2000000   0.5196152   0.2765895), wk =   0.0060000
        k(  418) = (   0.2000000   0.5196152  -0.3073216), wk =   0.0030000
        k(  419) = (   0.2000000   0.5773503   0.0000000), wk =   0.0015000
        k(  420) = (   0.2000000   0.5773503   0.0307322), wk =   0.0030000
        k(  421) = (   0.2000000   0.5773503   0.0614643), wk =   0.0030000
        k(  422) = (   0.2000000   0.5773503   0.0921965), wk =   0.0030000
        k(  423) = (   0.2000000   0.5773503   0.1229287), wk =   0.0030000
        k(  424) = (   0.2000000   0.5773503   0.1536608), wk =   0.0030000
        k(  425) = (   0.2000000   0.5773503   0.1843930), wk =   0.0030000
        k(  426) = (   0.2000000   0.5773503   0.2151251), wk =   0.0030000
        k(  427) = (   0.2000000   0.5773503   0.2458573), wk =   0.0030000
        k(  428) = (   0.2000000   0.5773503   0.2765895), wk =   0.0030000
        k(  429) = (   0.2000000   0.5773503  -0.3073216), wk =   0.0015000
        k(  430) = (   0.2500000   0.4330127   0.0000000), wk =   0.0015000
        k(  431) = (   0.2500000   0.4330127   0.0307322), wk =   0.0030000
        k(  432) = (   0.2500000   0.4330127   0.0614643), wk =   0.0030000
        k(  433) = (   0.2500000   0.4330127   0.0921965), wk =   0.0030000
        k(  434) = (   0.2500000   0.4330127   0.1229287), wk =   0.0030000
        k(  435) = (   0.2500000   0.4330127   0.1536608), wk =   0.0030000
        k(  436) = (   0.2500000   0.4330127   0.1843930), wk =   0.0030000
        k(  437) = (   0.2500000   0.4330127   0.2151251), wk =   0.0030000
        k(  438) = (   0.2500000   0.4330127   0.2458573), wk =   0.0030000
        k(  439) = (   0.2500000   0.4330127   0.2765895), wk =   0.0030000
        k(  440) = (   0.2500000   0.4330127  -0.3073216), wk =   0.0015000
        k(  441) = (   0.2500000   0.4907477   0.0000000), wk =   0.0030000
        k(  442) = (   0.2500000   0.4907477   0.0307322), wk =   0.0060000
        k(  443) = (   0.2500000   0.4907477   0.0614643), wk =   0.0060000
        k(  444) = (   0.2500000   0.4907477   0.0921965), wk =   0.0060000
        k(  445) = (   0.2500000   0.4907477   0.1229287), wk =   0.0060000
        k(  446) = (   0.2500000   0.4907477   0.1536608), wk =   0.0060000
        k(  447) = (   0.2500000   0.4907477   0.1843930), wk =   0.0060000
        k(  448) = (   0.2500000   0.4907477   0.2151251), wk =   0.0060000
        k(  449) = (   0.2500000   0.4907477   0.2458573), wk =   0.0060000
        k(  450) = (   0.2500000   0.4907477   0.2765895), wk =   0.0060000
        k(  451) = (   0.2500000   0.4907477  -0.3073216), wk =   0.0030000
        k(  452) = (   0.2500000   0.5484828   0.0000000), wk =   0.0030000
        k(  453) = (   0.2500000   0.5484828   0.0307322), wk =   0.0060000
        k(  454) = (   0.2500000   0.5484828   0.0614643), wk =   0.0060000
        k(  455) = (   0.2500000   0.5484828   0.0921965), wk =   0.0060000
        k(  456) = (   0.2500000   0.5484828   0.1229287), wk =   0.0060000
        k(  457) = (   0.2500000   0.5484828   0.1536608), wk =   0.0060000
        k(  458) = (   0.2500000   0.5484828   0.1843930), wk =   0.0060000
        k(  459) = (   0.2500000   0.5484828   0.2151251), wk =   0.0060000
        k(  460) = (   0.2500000   0.5484828   0.2458573), wk =   0.0060000
        k(  461) = (   0.2500000   0.5484828   0.2765895), wk =   0.0060000
        k(  462) = (   0.2500000   0.5484828  -0.3073216), wk =   0.0030000
        k(  463) = (   0.3000000   0.5196152   0.0000000), wk =   0.0015000
        k(  464) = (   0.3000000   0.5196152   0.0307322), wk =   0.0030000
        k(  465) = (   0.3000000   0.5196152   0.0614643), wk =   0.0030000
        k(  466) = (   0.3000000   0.5196152   0.0921965), wk =   0.0030000
        k(  467) = (   0.3000000   0.5196152   0.1229287), wk =   0.0030000
        k(  468) = (   0.3000000   0.5196152   0.1536608), wk =   0.0030000
        k(  469) = (   0.3000000   0.5196152   0.1843930), wk =   0.0030000
        k(  470) = (   0.3000000   0.5196152   0.2151251), wk =   0.0030000
        k(  471) = (   0.3000000   0.5196152   0.2458573), wk =   0.0030000
        k(  472) = (   0.3000000   0.5196152   0.2765895), wk =   0.0030000
        k(  473) = (   0.3000000   0.5196152  -0.3073216), wk =   0.0015000
        k(  474) = (   0.3000000   0.5773503   0.0000000), wk =   0.0015000
        k(  475) = (   0.3000000   0.5773503   0.0307322), wk =   0.0030000
        k(  476) = (   0.3000000   0.5773503   0.0614643), wk =   0.0030000
        k(  477) = (   0.3000000   0.5773503   0.0921965), wk =   0.0030000
        k(  478) = (   0.3000000   0.5773503   0.1229287), wk =   0.0030000
        k(  479) = (   0.3000000   0.5773503   0.1536608), wk =   0.0030000
        k(  480) = (   0.3000000   0.5773503   0.1843930), wk =   0.0030000
        k(  481) = (   0.3000000   0.5773503   0.2151251), wk =   0.0030000
        k(  482) = (   0.3000000   0.5773503   0.2458573), wk =   0.0030000
        k(  483) = (   0.3000000   0.5773503   0.2765895), wk =   0.0030000
        k(  484) = (   0.3000000   0.5773503  -0.3073216), wk =   0.0015000

                       cryst. coord.
        k(    1) = (   0.0000000   0.0000000   0.0000000), wk =   0.0002500
        k(    2) = (   0.0000000   0.0000000   0.0500000), wk =   0.0005000
        k(    3) = (   0.0000000   0.0000000   0.1000000), wk =   0.0005000
        k(    4) = (   0.0000000   0.0000000   0.1500000), wk =   0.0005000
        k(    5) = (   0.0000000   0.0000000   0.2000000), wk =   0.0005000
        k(    6) = (   0.0000000   0.0000000   0.2500000), wk =   0.0005000
        k(    7) = (   0.0000000   0.0000000   0.3000000), wk =   0.0005000
        k(    8) = (   0.0000000   0.0000000   0.3500000), wk =   0.0005000
        k(    9) = (   0.0000000   0.0000000   0.4000000), wk =   0.0005000
        k(   10) = (   0.0000000   0.0000000   0.4500000), wk =   0.0005000
        k(   11) = (   0.0000000   0.0000000  -0.5000000), wk =   0.0002500
        k(   12) = (   0.0000000   0.0500000   0.0000000), wk =   0.0015000
        k(   13) = (   0.0000000   0.0500000   0.0500000), wk =   0.0030000
        k(   14) = (   0.0000000   0.0500000   0.1000000), wk =   0.0030000
        k(   15) = (   0.0000000   0.0500000   0.1500000), wk =   0.0030000
        k(   16) = (   0.0000000   0.0500000   0.2000000), wk =   0.0030000
        k(   17) = (   0.0000000   0.0500000   0.2500000), wk =   0.0030000
        k(   18) = (   0.0000000   0.0500000   0.3000000), wk =   0.0030000
        k(   19) = (   0.0000000   0.0500000   0.3500000), wk =   0.0030000
        k(   20) = (   0.0000000   0.0500000   0.4000000), wk =   0.0030000
        k(   21) = (   0.0000000   0.0500000   0.4500000), wk =   0.0030000
        k(   22) = (   0.0000000   0.0500000  -0.5000000), wk =   0.0015000
        k(   23) = (   0.0000000   0.1000000   0.0000000), wk =   0.0015000
        k(   24) = (   0.0000000   0.1000000   0.0500000), wk =   0.0030000
        k(   25) = (   0.0000000   0.1000000   0.1000000), wk =   0.0030000
        k(   26) = (   0.0000000   0.1000000   0.1500000), wk =   0.0030000
        k(   27) = (   0.0000000   0.1000000   0.2000000), wk =   0.0030000
        k(   28) = (   0.0000000   0.1000000   0.2500000), wk =   0.0030000
        k(   29) = (   0.0000000   0.1000000   0.3000000), wk =   0.0030000
        k(   30) = (   0.0000000   0.1000000   0.3500000), wk =   0.0030000
        k(   31) = (   0.0000000   0.1000000   0.4000000), wk =   0.0030000
        k(   32) = (   0.0000000   0.1000000   0.4500000), wk =   0.0030000
        k(   33) = (   0.0000000   0.1000000  -0.5000000), wk =   0.0015000
        k(   34) = (   0.0000000   0.1500000   0.0000000), wk =   0.0015000
        k(   35) = (   0.0000000   0.1500000   0.0500000), wk =   0.0030000
        k(   36) = (   0.0000000   0.1500000   0.1000000), wk =   0.0030000
        k(   37) = (   0.0000000   0.1500000   0.1500000), wk =   0.0030000
        k(   38) = (   0.0000000   0.1500000   0.2000000), wk =   0.0030000
        k(   39) = (   0.0000000   0.1500000   0.2500000), wk =   0.0030000
        k(   40) = (   0.0000000   0.1500000   0.3000000), wk =   0.0030000
        k(   41) = (   0.0000000   0.1500000   0.3500000), wk =   0.0030000
        k(   42) = (   0.0000000   0.1500000   0.4000000), wk =   0.0030000
        k(   43) = (   0.0000000   0.1500000   0.4500000), wk =   0.0030000
        k(   44) = (   0.0000000   0.1500000  -0.5000000), wk =   0.0015000
        k(   45) = (   0.0000000   0.2000000   0.0000000), wk =   0.0015000
        k(   46) = (   0.0000000   0.2000000   0.0500000), wk =   0.0030000
        k(   47) = (   0.0000000   0.2000000   0.1000000), wk =   0.0030000
        k(   48) = (   0.0000000   0.2000000   0.1500000), wk =   0.0030000
        k(   49) = (   0.0000000   0.2000000   0.2000000), wk =   0.0030000
        k(   50) = (   0.0000000   0.2000000   0.2500000), wk =   0.0030000
        k(   51) = (   0.0000000   0.2000000   0.3000000), wk =   0.0030000
        k(   52) = (   0.0000000   0.2000000   0.3500000), wk =   0.0030000
        k(   53) = (   0.0000000   0.2000000   0.4000000), wk =   0.0030000
        k(   54) = (   0.0000000   0.2000000   0.4500000), wk =   0.0030000
        k(   55) = (   0.0000000   0.2000000  -0.5000000), wk =   0.0015000
        k(   56) = (   0.0000000   0.2500000   0.0000000), wk =   0.0015000
        k(   57) = (   0.0000000   0.2500000   0.0500000), wk =   0.0030000
        k(   58) = (   0.0000000   0.2500000   0.1000000), wk =   0.0030000
        k(   59) = (   0.0000000   0.2500000   0.1500000), wk =   0.0030000
        k(   60) = (   0.0000000   0.2500000   0.2000000), wk =   0.0030000
        k(   61) = (   0.0000000   0.2500000   0.2500000), wk =   0.0030000
        k(   62) = (   0.0000000   0.2500000   0.3000000), wk =   0.0030000
        k(   63) = (   0.0000000   0.2500000   0.3500000), wk =   0.0030000
        k(   64) = (   0.0000000   0.2500000   0.4000000), wk =   0.0030000
        k(   65) = (   0.0000000   0.2500000   0.4500000), wk =   0.0030000
        k(   66) = (   0.0000000   0.2500000  -0.5000000), wk =   0.0015000
        k(   67) = (   0.0000000   0.3000000   0.0000000), wk =   0.0015000
        k(   68) = (   0.0000000   0.3000000   0.0500000), wk =   0.0030000
        k(   69) = (   0.0000000   0.3000000   0.1000000), wk =   0.0030000
        k(   70) = (   0.0000000   0.3000000   0.1500000), wk =   0.0030000
        k(   71) = (   0.0000000   0.3000000   0.2000000), wk =   0.0030000
        k(   72) = (   0.0000000   0.3000000   0.2500000), wk =   0.0030000
        k(   73) = (   0.0000000   0.3000000   0.3000000), wk =   0.0030000
        k(   74) = (   0.0000000   0.3000000   0.3500000), wk =   0.0030000
        k(   75) = (   0.0000000   0.3000000   0.4000000), wk =   0.0030000
        k(   76) = (   0.0000000   0.3000000   0.4500000), wk =   0.0030000
        k(   77) = (   0.0000000   0.3000000  -0.5000000), wk =   0.0015000
        k(   78) = (   0.0000000   0.3500000   0.0000000), wk =   0.0015000
        k(   79) = (   0.0000000   0.3500000   0.0500000), wk =   0.0030000
        k(   80) = (   0.0000000   0.3500000   0.1000000), wk =   0.0030000
        k(   81) = (   0.0000000   0.3500000   0.1500000), wk =   0.0030000
        k(   82) = (   0.0000000   0.3500000   0.2000000), wk =   0.0030000
        k(   83) = (   0.0000000   0.3500000   0.2500000), wk =   0.0030000
        k(   84) = (   0.0000000   0.3500000   0.3000000), wk =   0.0030000
        k(   85) = (   0.0000000   0.3500000   0.3500000), wk =   0.0030000
        k(   86) = (   0.0000000   0.3500000   0.4000000), wk =   0.0030000
        k(   87) = (   0.0000000   0.3500000   0.4500000), wk =   0.0030000
        k(   88) = (   0.0000000   0.3500000  -0.5000000), wk =   0.0015000
        k(   89) = (   0.0000000   0.4000000   0.0000000), wk =   0.0015000
        k(   90) = (   0.0000000   0.4000000   0.0500000), wk =   0.0030000
        k(   91) = (   0.0000000   0.4000000   0.1000000), wk =   0.0030000
        k(   92) = (   0.0000000   0.4000000   0.1500000), wk =   0.0030000
        k(   93) = (   0.0000000   0.4000000   0.2000000), wk =   0.0030000
        k(   94) = (   0.0000000   0.4000000   0.2500000), wk =   0.0030000
        k(   95) = (   0.0000000   0.4000000   0.3000000), wk =   0.0030000
        k(   96) = (   0.0000000   0.4000000   0.3500000), wk =   0.0030000
        k(   97) = (   0.0000000   0.4000000   0.4000000), wk =   0.0030000
        k(   98) = (   0.0000000   0.4000000   0.4500000), wk =   0.0030000
        k(   99) = (   0.0000000   0.4000000  -0.5000000), wk =   0.0015000
        k(  100) = (   0.0000000   0.4500000   0.0000000), wk =   0.0015000
        k(  101) = (   0.0000000   0.4500000   0.0500000), wk =   0.0030000
        k(  102) = (   0.0000000   0.4500000   0.1000000), wk =   0.0030000
        k(  103) = (   0.0000000   0.4500000   0.1500000), wk =   0.0030000
        k(  104) = (   0.0000000   0.4500000   0.2000000), wk =   0.0030000
        k(  105) = (   0.0000000   0.4500000   0.2500000), wk =   0.0030000
        k(  106) = (   0.0000000   0.4500000   0.3000000), wk =   0.0030000
        k(  107) = (   0.0000000   0.4500000   0.3500000), wk =   0.0030000
        k(  108) = (   0.0000000   0.4500000   0.4000000), wk =   0.0030000
        k(  109) = (   0.0000000   0.4500000   0.4500000), wk =   0.0030000
        k(  110) = (   0.0000000   0.4500000  -0.5000000), wk =   0.0015000
        k(  111) = (   0.0000000  -0.5000000   0.0000000), wk =   0.0007500
        k(  112) = (   0.0000000  -0.5000000   0.0500000), wk =   0.0015000
        k(  113) = (   0.0000000  -0.5000000   0.1000000), wk =   0.0015000
        k(  114) = (   0.0000000  -0.5000000   0.1500000), wk =   0.0015000
        k(  115) = (   0.0000000  -0.5000000   0.2000000), wk =   0.0015000
        k(  116) = (   0.0000000  -0.5000000   0.2500000), wk =   0.0015000
        k(  117) = (   0.0000000  -0.5000000   0.3000000), wk =   0.0015000
        k(  118) = (   0.0000000  -0.5000000   0.3500000), wk =   0.0015000
        k(  119) = (   0.0000000  -0.5000000   0.4000000), wk =   0.0015000
        k(  120) = (   0.0000000  -0.5000000   0.4500000), wk =   0.0015000
        k(  121) = (   0.0000000  -0.5000000  -0.5000000), wk =   0.0007500
        k(  122) = (   0.0500000   0.0500000   0.0000000), wk =   0.0015000
        k(  123) = (   0.0500000   0.0500000   0.0500000), wk =   0.0030000
        k(  124) = (   0.0500000   0.0500000   0.1000000), wk =   0.0030000
        k(  125) = (   0.0500000   0.0500000   0.1500000), wk =   0.0030000
        k(  126) = (   0.0500000   0.0500000   0.2000000), wk =   0.0030000
        k(  127) = (   0.0500000   0.0500000   0.2500000), wk =   0.0030000
        k(  128) = (   0.0500000   0.0500000   0.3000000), wk =   0.0030000
        k(  129) = (   0.0500000   0.0500000   0.3500000), wk =   0.0030000
        k(  130) = (   0.0500000   0.0500000   0.4000000), wk =   0.0030000
        k(  131) = (   0.0500000   0.0500000   0.4500000), wk =   0.0030000
        k(  132) = (   0.0500000   0.0500000  -0.5000000), wk =   0.0015000
        k(  133) = (   0.0500000   0.1000000   0.0000000), wk =   0.0030000
        k(  134) = (   0.0500000   0.1000000   0.0500000), wk =   0.0060000
        k(  135) = (   0.0500000   0.1000000   0.1000000), wk =   0.0060000
        k(  136) = (   0.0500000   0.1000000   0.1500000), wk =   0.0060000
        k(  137) = (   0.0500000   0.1000000   0.2000000), wk =   0.0060000
        k(  138) = (   0.0500000   0.1000000   0.2500000), wk =   0.0060000
        k(  139) = (   0.0500000   0.1000000   0.3000000), wk =   0.0060000
        k(  140) = (   0.0500000   0.1000000   0.3500000), wk =   0.0060000
        k(  141) = (   0.0500000   0.1000000   0.4000000), wk =   0.0060000
        k(  142) = (   0.0500000   0.1000000   0.4500000), wk =   0.0060000
        k(  143) = (   0.0500000   0.1000000  -0.5000000), wk =   0.0030000
        k(  144) = (   0.0500000   0.1500000   0.0000000), wk =   0.0030000
        k(  145) = (   0.0500000   0.1500000   0.0500000), wk =   0.0060000
        k(  146) = (   0.0500000   0.1500000   0.1000000), wk =   0.0060000
        k(  147) = (   0.0500000   0.1500000   0.1500000), wk =   0.0060000
        k(  148) = (   0.0500000   0.1500000   0.2000000), wk =   0.0060000
        k(  149) = (   0.0500000   0.1500000   0.2500000), wk =   0.0060000
        k(  150) = (   0.0500000   0.1500000   0.3000000), wk =   0.0060000
        k(  151) = (   0.0500000   0.1500000   0.3500000), wk =   0.0060000
        k(  152) = (   0.0500000   0.1500000   0.4000000), wk =   0.0060000
        k(  153) = (   0.0500000   0.1500000   0.4500000), wk =   0.0060000
        k(  154) = (   0.0500000   0.1500000  -0.5000000), wk =   0.0030000
        k(  155) = (   0.0500000   0.2000000   0.0000000), wk =   0.0030000
        k(  156) = (   0.0500000   0.2000000   0.0500000), wk =   0.0060000
        k(  157) = (   0.0500000   0.2000000   0.1000000), wk =   0.0060000
        k(  158) = (   0.0500000   0.2000000   0.1500000), wk =   0.0060000
        k(  159) = (   0.0500000   0.2000000   0.2000000), wk =   0.0060000
        k(  160) = (   0.0500000   0.2000000   0.2500000), wk =   0.0060000
        k(  161) = (   0.0500000   0.2000000   0.3000000), wk =   0.0060000
        k(  162) = (   0.0500000   0.2000000   0.3500000), wk =   0.0060000
        k(  163) = (   0.0500000   0.2000000   0.4000000), wk =   0.0060000
        k(  164) = (   0.0500000   0.2000000   0.4500000), wk =   0.0060000
        k(  165) = (   0.0500000   0.2000000  -0.5000000), wk =   0.0030000
        k(  166) = (   0.0500000   0.2500000   0.0000000), wk =   0.0030000
        k(  167) = (   0.0500000   0.2500000   0.0500000), wk =   0.0060000
        k(  168) = (   0.0500000   0.2500000   0.1000000), wk =   0.0060000
        k(  169) = (   0.0500000   0.2500000   0.1500000), wk =   0.0060000
        k(  170) = (   0.0500000   0.2500000   0.2000000), wk =   0.0060000
        k(  171) = (   0.0500000   0.2500000   0.2500000), wk =   0.0060000
        k(  172) = (   0.0500000   0.2500000   0.3000000), wk =   0.0060000
        k(  173) = (   0.0500000   0.2500000   0.3500000), wk =   0.0060000
        k(  174) = (   0.0500000   0.2500000   0.4000000), wk =   0.0060000
        k(  175) = (   0.0500000   0.2500000   0.4500000), wk =   0.0060000
        k(  176) = (   0.0500000   0.2500000  -0.5000000), wk =   0.0030000
        k(  177) = (   0.0500000   0.3000000   0.0000000), wk =   0.0030000
        k(  178) = (   0.0500000   0.3000000   0.0500000), wk =   0.0060000
        k(  179) = (   0.0500000   0.3000000   0.1000000), wk =   0.0060000
        k(  180) = (   0.0500000   0.3000000   0.1500000), wk =   0.0060000
        k(  181) = (   0.0500000   0.3000000   0.2000000), wk =   0.0060000
        k(  182) = (   0.0500000   0.3000000   0.2500000), wk =   0.0060000
        k(  183) = (   0.0500000   0.3000000   0.3000000), wk =   0.0060000
        k(  184) = (   0.0500000   0.3000000   0.3500000), wk =   0.0060000
        k(  185) = (   0.0500000   0.3000000   0.4000000), wk =   0.0060000
        k(  186) = (   0.0500000   0.3000000   0.4500000), wk =   0.0060000
        k(  187) = (   0.0500000   0.3000000  -0.5000000), wk =   0.0030000
        k(  188) = (   0.0500000   0.3500000   0.0000000), wk =   0.0030000
        k(  189) = (   0.0500000   0.3500000   0.0500000), wk =   0.0060000
        k(  190) = (   0.0500000   0.3500000   0.1000000), wk =   0.0060000
        k(  191) = (   0.0500000   0.3500000   0.1500000), wk =   0.0060000
        k(  192) = (   0.0500000   0.3500000   0.2000000), wk =   0.0060000
        k(  193) = (   0.0500000   0.3500000   0.2500000), wk =   0.0060000
        k(  194) = (   0.0500000   0.3500000   0.3000000), wk =   0.0060000
        k(  195) = (   0.0500000   0.3500000   0.3500000), wk =   0.0060000
        k(  196) = (   0.0500000   0.3500000   0.4000000), wk =   0.0060000
        k(  197) = (   0.0500000   0.3500000   0.4500000), wk =   0.0060000
        k(  198) = (   0.0500000   0.3500000  -0.5000000), wk =   0.0030000
        k(  199) = (   0.0500000   0.4000000   0.0000000), wk =   0.0030000
        k(  200) = (   0.0500000   0.4000000   0.0500000), wk =   0.0060000
        k(  201) = (   0.0500000   0.4000000   0.1000000), wk =   0.0060000
        k(  202) = (   0.0500000   0.4000000   0.1500000), wk =   0.0060000
        k(  203) = (   0.0500000   0.4000000   0.2000000), wk =   0.0060000
        k(  204) = (   0.0500000   0.4000000   0.2500000), wk =   0.0060000
        k(  205) = (   0.0500000   0.4000000   0.3000000), wk =   0.0060000
        k(  206) = (   0.0500000   0.4000000   0.3500000), wk =   0.0060000
        k(  207) = (   0.0500000   0.4000000   0.4000000), wk =   0.0060000
        k(  208) = (   0.0500000   0.4000000   0.4500000), wk =   0.0060000
        k(  209) = (   0.0500000   0.4000000  -0.5000000), wk =   0.0030000
        k(  210) = (   0.0500000   0.4500000   0.0000000), wk =   0.0030000
        k(  211) = (   0.0500000   0.4500000   0.0500000), wk =   0.0060000
        k(  212) = (   0.0500000   0.4500000   0.1000000), wk =   0.0060000
        k(  213) = (   0.0500000   0.4500000   0.1500000), wk =   0.0060000
        k(  214) = (   0.0500000   0.4500000   0.2000000), wk =   0.0060000
        k(  215) = (   0.0500000   0.4500000   0.2500000), wk =   0.0060000
        k(  216) = (   0.0500000   0.4500000   0.3000000), wk =   0.0060000
        k(  217) = (   0.0500000   0.4500000   0.3500000), wk =   0.0060000
        k(  218) = (   0.0500000   0.4500000   0.4000000), wk =   0.0060000
        k(  219) = (   0.0500000   0.4500000   0.4500000), wk =   0.0060000
        k(  220) = (   0.0500000   0.4500000  -0.5000000), wk =   0.0030000
        k(  221) = (   0.1000000   0.1000000   0.0000000), wk =   0.0015000
        k(  222) = (   0.1000000   0.1000000   0.0500000), wk =   0.0030000
        k(  223) = (   0.1000000   0.1000000   0.1000000), wk =   0.0030000
        k(  224) = (   0.1000000   0.1000000   0.1500000), wk =   0.0030000
        k(  225) = (   0.1000000   0.1000000   0.2000000), wk =   0.0030000
        k(  226) = (   0.1000000   0.1000000   0.2500000), wk =   0.0030000
        k(  227) = (   0.1000000   0.1000000   0.3000000), wk =   0.0030000
        k(  228) = (   0.1000000   0.1000000   0.3500000), wk =   0.0030000
        k(  229) = (   0.1000000   0.1000000   0.4000000), wk =   0.0030000
        k(  230) = (   0.1000000   0.1000000   0.4500000), wk =   0.0030000
        k(  231) = (   0.1000000   0.1000000  -0.5000000), wk =   0.0015000
        k(  232) = (   0.1000000   0.1500000   0.0000000), wk =   0.0030000
        k(  233) = (   0.1000000   0.1500000   0.0500000), wk =   0.0060000
        k(  234) = (   0.1000000   0.1500000   0.1000000), wk =   0.0060000
        k(  235) = (   0.1000000   0.1500000   0.1500000), wk =   0.0060000
        k(  236) = (   0.1000000   0.1500000   0.2000000), wk =   0.0060000
        k(  237) = (   0.1000000   0.1500000   0.2500000), wk =   0.0060000
        k(  238) = (   0.1000000   0.1500000   0.3000000), wk =   0.0060000
        k(  239) = (   0.1000000   0.1500000   0.3500000), wk =   0.0060000
        k(  240) = (   0.1000000   0.1500000   0.4000000), wk =   0.0060000
        k(  241) = (   0.1000000   0.1500000   0.4500000), wk =   0.0060000
        k(  242) = (   0.1000000   0.1500000  -0.5000000), wk =   0.0030000
        k(  243) = (   0.1000000   0.2000000   0.0000000), wk =   0.0030000
        k(  244) = (   0.1000000   0.2000000   0.0500000), wk =   0.0060000
        k(  245) = (   0.1000000   0.2000000   0.1000000), wk =   0.0060000
        k(  246) = (   0.1000000   0.2000000   0.1500000), wk =   0.0060000
        k(  247) = (   0.1000000   0.2000000   0.2000000), wk =   0.0060000
        k(  248) = (   0.1000000   0.2000000   0.2500000), wk =   0.0060000
        k(  249) = (   0.1000000   0.2000000   0.3000000), wk =   0.0060000
        k(  250) = (   0.1000000   0.2000000   0.3500000), wk =   0.0060000
        k(  251) = (   0.1000000   0.2000000   0.4000000), wk =   0.0060000
        k(  252) = (   0.1000000   0.2000000   0.4500000), wk =   0.0060000
        k(  253) = (   0.1000000   0.2000000  -0.5000000), wk =   0.0030000
        k(  254) = (   0.1000000   0.2500000   0.0000000), wk =   0.0030000
        k(  255) = (   0.1000000   0.2500000   0.0500000), wk =   0.0060000
        k(  256) = (   0.1000000   0.2500000   0.1000000), wk =   0.0060000
        k(  257) = (   0.1000000   0.2500000   0.1500000), wk =   0.0060000
        k(  258) = (   0.1000000   0.2500000   0.2000000), wk =   0.0060000
        k(  259) = (   0.1000000   0.2500000   0.2500000), wk =   0.0060000
        k(  260) = (   0.1000000   0.2500000   0.3000000), wk =   0.0060000
        k(  261) = (   0.1000000   0.2500000   0.3500000), wk =   0.0060000
        k(  262) = (   0.1000000   0.2500000   0.4000000), wk =   0.0060000
        k(  263) = (   0.1000000   0.2500000   0.4500000), wk =   0.0060000
        k(  264) = (   0.1000000   0.2500000  -0.5000000), wk =   0.0030000
        k(  265) = (   0.1000000   0.3000000   0.0000000), wk =   0.0030000
        k(  266) = (   0.1000000   0.3000000   0.0500000), wk =   0.0060000
        k(  267) = (   0.1000000   0.3000000   0.1000000), wk =   0.0060000
        k(  268) = (   0.1000000   0.3000000   0.1500000), wk =   0.0060000
        k(  269) = (   0.1000000   0.3000000   0.2000000), wk =   0.0060000
        k(  270) = (   0.1000000   0.3000000   0.2500000), wk =   0.0060000
        k(  271) = (   0.1000000   0.3000000   0.3000000), wk =   0.0060000
        k(  272) = (   0.1000000   0.3000000   0.3500000), wk =   0.0060000
        k(  273) = (   0.1000000   0.3000000   0.4000000), wk =   0.0060000
        k(  274) = (   0.1000000   0.3000000   0.4500000), wk =   0.0060000
        k(  275) = (   0.1000000   0.3000000  -0.5000000), wk =   0.0030000
        k(  276) = (   0.1000000   0.3500000   0.0000000), wk =   0.0030000
        k(  277) = (   0.1000000   0.3500000   0.0500000), wk =   0.0060000
        k(  278) = (   0.1000000   0.3500000   0.1000000), wk =   0.0060000
        k(  279) = (   0.1000000   0.3500000   0.1500000), wk =   0.0060000
        k(  280) = (   0.1000000   0.3500000   0.2000000), wk =   0.0060000
        k(  281) = (   0.1000000   0.3500000   0.2500000), wk =   0.0060000
        k(  282) = (   0.1000000   0.3500000   0.3000000), wk =   0.0060000
        k(  283) = (   0.1000000   0.3500000   0.3500000), wk =   0.0060000
        k(  284) = (   0.1000000   0.3500000   0.4000000), wk =   0.0060000
        k(  285) = (   0.1000000   0.3500000   0.4500000), wk =   0.0060000
        k(  286) = (   0.1000000   0.3500000  -0.5000000), wk =   0.0030000
        k(  287) = (   0.1000000   0.4000000   0.0000000), wk =   0.0030000
        k(  288) = (   0.1000000   0.4000000   0.0500000), wk =   0.0060000
        k(  289) = (   0.1000000   0.4000000   0.1000000), wk =   0.0060000
        k(  290) = (   0.1000000   0.4000000   0.1500000), wk =   0.0060000
        k(  291) = (   0.1000000   0.4000000   0.2000000), wk =   0.0060000
        k(  292) = (   0.1000000   0.4000000   0.2500000), wk =   0.0060000
        k(  293) = (   0.1000000   0.4000000   0.3000000), wk =   0.0060000
        k(  294) = (   0.1000000   0.4000000   0.3500000), wk =   0.0060000
        k(  295) = (   0.1000000   0.4000000   0.4000000), wk =   0.0060000
        k(  296) = (   0.1000000   0.4000000   0.4500000), wk =   0.0060000
        k(  297) = (   0.1000000   0.4000000  -0.5000000), wk =   0.0030000
        k(  298) = (   0.1000000   0.4500000   0.0000000), wk =   0.0015000
        k(  299) = (   0.1000000   0.4500000   0.0500000), wk =   0.0030000
        k(  300) = (   0.1000000   0.4500000   0.1000000), wk =   0.0030000
        k(  301) = (   0.1000000   0.4500000   0.1500000), wk =   0.0030000
        k(  302) = (   0.1000000   0.4500000   0.2000000), wk =   0.0030000
        k(  303) = (   0.1000000   0.4500000   0.2500000), wk =   0.0030000
        k(  304) = (   0.1000000   0.4500000   0.3000000), wk =   0.0030000
        k(  305) = (   0.1000000   0.4500000   0.3500000), wk =   0.0030000
        k(  306) = (   0.1000000   0.4500000   0.4000000), wk =   0.0030000
        k(  307) = (   0.1000000   0.4500000   0.4500000), wk =   0.0030000
        k(  308) = (   0.1000000   0.4500000  -0.5000000), wk =   0.0015000
        k(  309) = (   0.1500000   0.1500000   0.0000000), wk =   0.0015000
        k(  310) = (   0.1500000   0.1500000   0.0500000), wk =   0.0030000
        k(  311) = (   0.1500000   0.1500000   0.1000000), wk =   0.0030000
        k(  312) = (   0.1500000   0.1500000   0.1500000), wk =   0.0030000
        k(  313) = (   0.1500000   0.1500000   0.2000000), wk =   0.0030000
        k(  314) = (   0.1500000   0.1500000   0.2500000), wk =   0.0030000
        k(  315) = (   0.1500000   0.1500000   0.3000000), wk =   0.0030000
        k(  316) = (   0.1500000   0.1500000   0.3500000), wk =   0.0030000
        k(  317) = (   0.1500000   0.1500000   0.4000000), wk =   0.0030000
        k(  318) = (   0.1500000   0.1500000   0.4500000), wk =   0.0030000
        k(  319) = (   0.1500000   0.1500000  -0.5000000), wk =   0.0015000
        k(  320) = (   0.1500000   0.2000000   0.0000000), wk =   0.0030000
        k(  321) = (   0.1500000   0.2000000   0.0500000), wk =   0.0060000
        k(  322) = (   0.1500000   0.2000000   0.1000000), wk =   0.0060000
        k(  323) = (   0.1500000   0.2000000   0.1500000), wk =   0.0060000
        k(  324) = (   0.1500000   0.2000000   0.2000000), wk =   0.0060000
        k(  325) = (   0.1500000   0.2000000   0.2500000), wk =   0.0060000
        k(  326) = (   0.1500000   0.2000000   0.3000000), wk =   0.0060000
        k(  327) = (   0.1500000   0.2000000   0.3500000), wk =   0.0060000
        k(  328) = (   0.1500000   0.2000000   0.4000000), wk =   0.0060000
        k(  329) = (   0.1500000   0.2000000   0.4500000), wk =   0.0060000
        k(  330) = (   0.1500000   0.2000000  -0.5000000), wk =   0.0030000
        k(  331) = (   0.1500000   0.2500000   0.0000000), wk =   0.0030000
        k(  332) = (   0.1500000   0.2500000   0.0500000), wk =   0.0060000
        k(  333) = (   0.1500000   0.2500000   0.1000000), wk =   0.0060000
        k(  334) = (   0.1500000   0.2500000   0.1500000), wk =   0.0060000
        k(  335) = (   0.1500000   0.2500000   0.2000000), wk =   0.0060000
        k(  336) = (   0.1500000   0.2500000   0.2500000), wk =   0.0060000
        k(  337) = (   0.1500000   0.2500000   0.3000000), wk =   0.0060000
        k(  338) = (   0.1500000   0.2500000   0.3500000), wk =   0.0060000
        k(  339) = (   0.1500000   0.2500000   0.4000000), wk =   0.0060000
        k(  340) = (   0.1500000   0.2500000   0.4500000), wk =   0.0060000
        k(  341) = (   0.1500000   0.2500000  -0.5000000), wk =   0.0030000
        k(  342) = (   0.1500000   0.3000000   0.0000000), wk =   0.0030000
        k(  343) = (   0.1500000   0.3000000   0.0500000), wk =   0.0060000
        k(  344) = (   0.1500000   0.3000000   0.1000000), wk =   0.0060000
        k(  345) = (   0.1500000   0.3000000   0.1500000), wk =   0.0060000
        k(  346) = (   0.1500000   0.3000000   0.2000000), wk =   0.0060000
        k(  347) = (   0.1500000   0.3000000   0.2500000), wk =   0.0060000
        k(  348) = (   0.1500000   0.3000000   0.3000000), wk =   0.0060000
        k(  349) = (   0.1500000   0.3000000   0.3500000), wk =   0.0060000
        k(  350) = (   0.1500000   0.3000000   0.4000000), wk =   0.0060000
        k(  351) = (   0.1500000   0.3000000   0.4500000), wk =   0.0060000
        k(  352) = (   0.1500000   0.3000000  -0.5000000), wk =   0.0030000
        k(  353) = (   0.1500000   0.3500000   0.0000000), wk =   0.0030000
        k(  354) = (   0.1500000   0.3500000   0.0500000), wk =   0.0060000
        k(  355) = (   0.1500000   0.3500000   0.1000000), wk =   0.0060000
        k(  356) = (   0.1500000   0.3500000   0.1500000), wk =   0.0060000
        k(  357) = (   0.1500000   0.3500000   0.2000000), wk =   0.0060000
        k(  358) = (   0.1500000   0.3500000   0.2500000), wk =   0.0060000
        k(  359) = (   0.1500000   0.3500000   0.3000000), wk =   0.0060000
        k(  360) = (   0.1500000   0.3500000   0.3500000), wk =   0.0060000
        k(  361) = (   0.1500000   0.3500000   0.4000000), wk =   0.0060000
        k(  362) = (   0.1500000   0.3500000   0.4500000), wk =   0.0060000
        k(  363) = (   0.1500000   0.3500000  -0.5000000), wk =   0.0030000
        k(  364) = (   0.1500000   0.4000000   0.0000000), wk =   0.0030000
        k(  365) = (   0.1500000   0.4000000   0.0500000), wk =   0.0060000
        k(  366) = (   0.1500000   0.4000000   0.1000000), wk =   0.0060000
        k(  367) = (   0.1500000   0.4000000   0.1500000), wk =   0.0060000
        k(  368) = (   0.1500000   0.4000000   0.2000000), wk =   0.0060000
        k(  369) = (   0.1500000   0.4000000   0.2500000), wk =   0.0060000
        k(  370) = (   0.1500000   0.4000000   0.3000000), wk =   0.0060000
        k(  371) = (   0.1500000   0.4000000   0.3500000), wk =   0.0060000
        k(  372) = (   0.1500000   0.4000000   0.4000000), wk =   0.0060000
        k(  373) = (   0.1500000   0.4000000   0.4500000), wk =   0.0060000
        k(  374) = (   0.1500000   0.4000000  -0.5000000), wk =   0.0030000
        k(  375) = (   0.2000000   0.2000000   0.0000000), wk =   0.0015000
        k(  376) = (   0.2000000   0.2000000   0.0500000), wk =   0.0030000
        k(  377) = (   0.2000000   0.2000000   0.1000000), wk =   0.0030000
        k(  378) = (   0.2000000   0.2000000   0.1500000), wk =   0.0030000
        k(  379) = (   0.2000000   0.2000000   0.2000000), wk =   0.0030000
        k(  380) = (   0.2000000   0.2000000   0.2500000), wk =   0.0030000
        k(  381) = (   0.2000000   0.2000000   0.3000000), wk =   0.0030000
        k(  382) = (   0.2000000   0.2000000   0.3500000), wk =   0.0030000
        k(  383) = (   0.2000000   0.2000000   0.4000000), wk =   0.0030000
        k(  384) = (   0.2000000   0.2000000   0.4500000), wk =   0.0030000
        k(  385) = (   0.2000000   0.2000000  -0.5000000), wk =   0.0015000
        k(  386) = (   0.2000000   0.2500000   0.0000000), wk =   0.0030000
        k(  387) = (   0.2000000   0.2500000   0.0500000), wk =   0.0060000
        k(  388) = (   0.2000000   0.2500000   0.1000000), wk =   0.0060000
        k(  389) = (   0.2000000   0.2500000   0.1500000), wk =   0.0060000
        k(  390) = (   0.2000000   0.2500000   0.2000000), wk =   0.0060000
        k(  391) = (   0.2000000   0.2500000   0.2500000), wk =   0.0060000
        k(  392) = (   0.2000000   0.2500000   0.3000000), wk =   0.0060000
        k(  393) = (   0.2000000   0.2500000   0.3500000), wk =   0.0060000
        k(  394) = (   0.2000000   0.2500000   0.4000000), wk =   0.0060000
        k(  395) = (   0.2000000   0.2500000   0.4500000), wk =   0.0060000
        k(  396) = (   0.2000000   0.2500000  -0.5000000), wk =   0.0030000
        k(  397) = (   0.2000000   0.3000000   0.0000000), wk =   0.0030000
        k(  398) = (   0.2000000   0.3000000   0.0500000), wk =   0.0060000
        k(  399) = (   0.2000000   0.3000000   0.1000000), wk =   0.0060000
        k(  400) = (   0.2000000   0.3000000   0.1500000), wk =   0.0060000
        k(  401) = (   0.2000000   0.3000000   0.2000000), wk =   0.0060000
        k(  402) = (   0.2000000   0.3000000   0.2500000), wk =   0.0060000
        k(  403) = (   0.2000000   0.3000000   0.3000000), wk =   0.0060000
        k(  404) = (   0.2000000   0.3000000   0.3500000), wk =   0.0060000
        k(  405) = (   0.2000000   0.3000000   0.4000000), wk =   0.0060000
        k(  406) = (   0.2000000   0.3000000   0.4500000), wk =   0.0060000
        k(  407) = (   0.2000000   0.3000000  -0.5000000), wk =   0.0030000
        k(  408) = (   0.2000000   0.3500000   0.0000000), wk =   0.0030000
        k(  409) = (   0.2000000   0.3500000   0.0500000), wk =   0.0060000
        k(  410) = (   0.2000000   0.3500000   0.1000000), wk =   0.0060000
        k(  411) = (   0.2000000   0.3500000   0.1500000), wk =   0.0060000
        k(  412) = (   0.2000000   0.3500000   0.2000000), wk =   0.0060000
        k(  413) = (   0.2000000   0.3500000   0.2500000), wk =   0.0060000
[...]
     1.0000   1.0000   1.0000   1.0000   1.0000   1.0000   1.0000   1.0000
     1.0000   1.0000   1.0000   1.0000   1.0000   1.0000   1.0000   1.0000
     1.0000   1.0000

          k = 0.2500 0.4907 0.1844 (  1331 PWs)   bands (ev):

    -5.2054  -5.1377  -4.2981  -4.2585  -4.2052  -4.1785  -4.0237  -3.9639
    -3.8985  -3.7796  -1.7007  -1.1647   4.4932   4.9208   6.4808   7.7934
     8.2963   9.2444

     occupation numbers 
     1.0000   1.0000   1.0000   1.0000   1.0000   1.0000   1.0000   1.0000
     1.0000   1.0000   1.0000   1.0000   1.0000   1.0000   1.0000   1.0000
     1.0000   1.0000

          k = 0.2500 0.4907 0.2151 (  1331 PWs)   bands (ev):

    -5.1861  -5.1472  -4.3298  -4.2695  -4.2445  -4.1922  -4.0085  -3.9488
    -3.8364  -3.8018  -1.6342  -1.2328   4.4613   4.7984   6.6007   7.6179
     8.5744   9.3306

     occupation numbers 
     1.0000   1.0000   1.0000   1.0000   1.0000   1.0000   1.0000   1.0000
     1.0000   1.0000   1.0000   1.0000   1.0000   1.0000   1.0000   1.0000
     1.0000   1.0000

          k = 0.2500 0.4907 0.2459 (  1330 PWs)   bands (ev):

    -5.1648  -5.1443  -4.3216  -4.2849  -4.2385  -4.2232  -3.9497  -3.9169
    -3.8332  -3.8055  -1.5532  -1.3061   4.4546   4.6860   6.7421   7.4350
     8.8328   9.3591

     occupation numbers 
     1.0000   1.0000   1.0000   1.0000   1.0000   1.0000   1.0000   1.0000
     1.0000   1.0000   1.0000   1.0000   1.0000   1.0000   1.0000   1.0000
     1.0000   1.0000

          k = 0.2500 0.4907 0.2766 (  1330 PWs)   bands (ev):

    -5.1711  -5.1597  -4.3454  -4.2722  -4.2504  -4.1703  -3.9729  -3.9167
    -3.8273  -3.7954  -1.4924  -1.3737   4.4750   4.5913   6.9018   7.2499
     9.0447   9.3243

     occupation numbers 
     1.0000   1.0000   1.0000   1.0000   1.0000   1.0000   1.0000   1.0000
     1.0000   1.0000   1.0000   1.0000   1.0000   1.0000   1.0000   1.0000
     1.0000   1.0000

          k = 0.2500 0.4907-0.3073 (  1332 PWs)   bands (ev):

    -5.1767  -5.1767  -4.3172  -4.3172  -4.2312  -4.2312  -3.9977  -3.9977
    -3.8095  -3.8095  -1.4408  -1.4408   4.5215   4.5215   7.0675   7.0675
     9.2144   9.2144

     occupation numbers 
     1.0000   1.0000   1.0000   1.0000   1.0000   1.0000   1.0000   1.0000
     1.0000   1.0000   1.0000   1.0000   1.0000   1.0000   1.0000   1.0000
     1.0000   1.0000

          k = 0.2500 0.5485 0.0000 (  1334 PWs)   bands (ev):

    -5.3162  -5.1436  -4.2966  -4.2218  -4.1715  -4.1340  -4.1042  -3.9899
    -3.9163  -3.7767  -1.6817  -1.1120   4.8418   5.4127   5.9657   7.3179
     8.2237   8.3597

     occupation numbers 
     1.0000   1.0000   1.0000   1.0000   1.0000   1.0000   1.0000   1.0000
     1.0000   1.0000   1.0000   1.0000   1.0000   1.0000   1.0000   1.0000
     1.0000   1.0000

          k = 0.2500 0.5485 0.0307 (  1331 PWs)   bands (ev):

    -5.3053  -5.1290  -4.2797  -4.1800  -4.1412  -4.0953  -4.0769  -3.9649
    -3.8818  -3.7706  -1.6465  -1.0962   4.8235   5.3875   5.9694   7.3697
     8.2443   8.3598

     occupation numbers 
     1.0000   1.0000   1.0000   1.0000   1.0000   1.0000   1.0000   1.0000
     1.0000   1.0000   1.0000   1.0000   1.0000   1.0000   1.0000   1.0000
     1.0000   1.0000

          k = 0.2500 0.5485 0.0615 (  1333 PWs)   bands (ev):

    -5.2997  -5.1511  -4.2990  -4.1645  -4.1496  -4.1355  -4.0917  -3.9877
    -3.8976  -3.8459  -1.6284  -1.1129   4.7682   5.3150   5.9820   7.5014
     8.2165   8.4142

     occupation numbers 
     1.0000   1.0000   1.0000   1.0000   1.0000   1.0000   1.0000   1.0000
     1.0000   1.0000   1.0000   1.0000   1.0000   1.0000   1.0000   1.0000
     1.0000   1.0000

          k = 0.2500 0.5485 0.0922 (  1329 PWs)   bands (ev):

    -5.2762  -5.1341  -4.2565  -4.1687  -4.1256  -4.0878  -4.0551  -3.9173
    -3.8756  -3.7718  -1.6061  -1.0971   4.6909   5.2062   6.0177   7.7034
     8.1305   8.5654

     occupation numbers 
     1.0000   1.0000   1.0000   1.0000   1.0000   1.0000   1.0000   1.0000
     1.0000   1.0000   1.0000   1.0000   1.0000   1.0000   1.0000   1.0000
     1.0000   1.0000

          k = 0.2500 0.5485 0.1229 (  1332 PWs)   bands (ev):

    -5.2747  -5.1489  -4.2668  -4.2269  -4.1450  -4.1097  -4.1032  -3.9674
    -3.8775  -3.8358  -1.6030  -1.1192   4.6036   5.0704   6.0760   7.9243
     8.0188   8.7422

     occupation numbers 
     1.0000   1.0000   1.0000   1.0000   1.0000   1.0000   1.0000   1.0000
     1.0000   1.0000   1.0000   1.0000   1.0000   1.0000   1.0000   1.0000
     1.0000   1.0000

          k = 0.2500 0.5485 0.1537 (  1328 PWs)   bands (ev):

    -5.2346  -5.1398  -4.2811  -4.2153  -4.1626  -4.1224  -3.9864  -3.9515
    -3.8038  -3.7416  -1.5388  -1.1361   4.5215   4.9329   6.1629   7.8393
     8.2195   8.9382

     occupation numbers 
     1.0000   1.0000   1.0000   1.0000   1.0000   1.0000   1.0000   1.0000
     1.0000   1.0000   1.0000   1.0000   1.0000   1.0000   1.0000   1.0000
     1.0000   1.0000

          k = 0.2500 0.5485 0.1844 (  1332 PWs)   bands (ev):

    -5.2417  -5.1430  -4.3096  -4.2794  -4.1983  -4.1450  -4.0249  -3.9537
    -3.8971  -3.8226  -1.5183  -1.1773   4.4518   4.7937   6.2712   7.6569
     8.4829   9.0927

     occupation numbers 
     1.0000   1.0000   1.0000   1.0000   1.0000   1.0000   1.0000   1.0000
     1.0000   1.0000   1.0000   1.0000   1.0000   1.0000   1.0000   1.0000
     1.0000   1.0000

          k = 0.2500 0.5485 0.2151 (  1331 PWs)   bands (ev):

    -5.2198  -5.1333  -4.3175  -4.2682  -4.2324  -4.1838  -3.9890  -3.9176
    -3.8537  -3.8407  -1.4678  -1.1988   4.4057   4.6732   6.4037   7.4674
     8.7409   9.2235

     occupation numbers 
     1.0000   1.0000   1.0000   1.0000   1.0000   1.0000   1.0000   1.0000
     1.0000   1.0000   1.0000   1.0000   1.0000   1.0000   1.0000   1.0000
     1.0000   1.0000

          k = 0.2500 0.5485 0.2459 (  1335 PWs)   bands (ev):

    -5.2320  -5.1497  -4.4133  -4.3664  -4.2919  -4.1958  -4.0017  -3.9804
    -3.8704  -3.8378  -1.4445  -1.2493   4.3825   4.5640   6.5513   7.2761
     8.9570   9.2974

     occupation numbers 
     1.0000   1.0000   1.0000   1.0000   1.0000   1.0000   1.0000   1.0000
     1.0000   1.0000   1.0000   1.0000   1.0000   1.0000   1.0000   1.0000
     1.0000   1.0000

          k = 0.2500 0.5485 0.2766 (  1329 PWs)   bands (ev):

    -5.1708  -5.1318  -4.3063  -4.2740  -4.1925  -4.1670  -3.9757  -3.9209
    -3.8512  -3.7963  -1.3559  -1.2747   4.3904   4.4813   6.7169   7.0880
     9.1382   9.3180

     occupation numbers 
     1.0000   1.0000   1.0000   1.0000   1.0000   1.0000   1.0000   1.0000
     1.0000   1.0000   1.0000   1.0000   1.0000   1.0000   1.0000   1.0000
     1.0000   1.0000

          k = 0.2500 0.5485-0.3073 (  1328 PWs)   bands (ev):

    -5.1568  -5.1568  -4.2631  -4.2631  -4.1652  -4.1652  -3.9444  -3.9444
    -3.8209  -3.8209  -1.3114  -1.3114   4.4221   4.4221   6.8986   6.8986
     9.2650   9.2650

     occupation numbers 
     1.0000   1.0000   1.0000   1.0000   1.0000   1.0000   1.0000   1.0000
     1.0000   1.0000   1.0000   1.0000   1.0000   1.0000   1.0000   1.0000
     1.0000   1.0000

          k = 0.3000 0.5196 0.0000 (  1334 PWs)   bands (ev):

    -5.2574  -5.2119  -4.3120  -4.1924  -4.1538  -4.1259  -4.1101  -3.9488
    -3.9329  -3.8039  -1.6030  -1.1512   5.0505   5.2669   5.8584   7.3652
     8.2001   8.2150

     occupation numbers 
     1.0000   1.0000   1.0000   1.0000   1.0000   1.0000   1.0000   1.0000
     1.0000   1.0000   1.0000   1.0000   1.0000   1.0000   1.0000   1.0000
     1.0000   1.0000

          k = 0.3000 0.5196 0.0307 (  1332 PWs)   bands (ev):

    -5.2524  -5.1806  -4.2702  -4.2089  -4.1475  -4.1231  -4.0936  -3.9581
    -3.9039  -3.7436  -1.5924  -1.1219   5.0242   5.2521   5.8571   7.4133
     8.1959   8.2458

     occupation numbers 
     1.0000   1.0000   1.0000   1.0000   1.0000   1.0000   1.0000   1.0000
     1.0000   1.0000   1.0000   1.0000   1.0000   1.0000   1.0000   1.0000
     1.0000   1.0000

          k = 0.3000 0.5196 0.0615 (  1329 PWs)   bands (ev):

    -5.2485  -5.1632  -4.2432  -4.1832  -4.1361  -4.1264  -4.0542  -3.8757
    -3.8692  -3.7242  -1.5835  -1.1003   4.9529   5.2123   5.8555   7.5532
     8.1374   8.3557

     occupation numbers 
     1.0000   1.0000   1.0000   1.0000   1.0000   1.0000   1.0000   1.0000
     1.0000   1.0000   1.0000   1.0000   1.0000   1.0000   1.0000   1.0000
     1.0000   1.0000

          k = 0.3000 0.5196 0.0922 (  1333 PWs)   bands (ev):

    -5.2320  -5.2088  -4.3586  -4.2128  -4.1747  -4.1342  -4.0740  -3.9224
    -3.8954  -3.8198  -1.5656  -1.1377   4.8496   5.1357   5.8717   7.7409
     8.0314   8.5134

     occupation numbers 
     1.0000   1.0000   1.0000   1.0000   1.0000   1.0000   1.0000   1.0000
     1.0000   1.0000   1.0000   1.0000   1.0000   1.0000   1.0000   1.0000
     1.0000   1.0000

          k = 0.3000 0.5196 0.1229 (  1335 PWs)   bands (ev):

    -5.2361  -5.2124  -4.3423  -4.2640  -4.2250  -4.1387  -4.0434  -3.9942
    -3.8915  -3.8803  -1.5522  -1.1607   4.7417   5.0322   5.9233   7.8474
     8.0158   8.6992

     occupation numbers 
     1.0000   1.0000   1.0000   1.0000   1.0000   1.0000   1.0000   1.0000
     1.0000   1.0000   1.0000   1.0000   1.0000   1.0000   1.0000   1.0000
     1.0000   1.0000

          k = 0.3000 0.5196 0.1537 (  1333 PWs)   bands (ev):

    -5.2276  -5.1717  -4.2513  -4.2286  -4.1911  -4.1545  -4.0679  -3.9905
    -3.9240  -3.8706  -1.5098  -1.1529   4.6428   4.9113   6.0092   7.6942
     8.2656   8.8889

     occupation numbers 
     1.0000   1.0000   1.0000   1.0000   1.0000   1.0000   1.0000   1.0000
     1.0000   1.0000   1.0000   1.0000   1.0000   1.0000   1.0000   1.0000
     1.0000   1.0000

          k = 0.3000 0.5196 0.1844 (  1333 PWs)   bands (ev):

    -5.2527  -5.1537  -4.3091  -4.2264  -4.2227  -4.1801  -4.0159  -3.9495
    -3.9105  -3.8985  -1.4952  -1.1648   4.5577   4.7898   6.1174   7.5197
     8.5328   9.0586

     occupation numbers 
     1.0000   1.0000   1.0000   1.0000   1.0000   1.0000   1.0000   1.0000
     1.0000   1.0000   1.0000   1.0000   1.0000   1.0000   1.0000   1.0000
     1.0000   1.0000

          k = 0.3000 0.5196 0.2151 (  1333 PWs)   bands (ev):

    -5.2433  -5.1532  -4.3204  -4.2604  -4.2543  -4.2131  -4.0013  -3.9727
    -3.8673  -3.8584  -1.4545  -1.2017   4.4949   4.6777   6.2530   7.3341
     8.7819   9.1927

     occupation numbers 
     1.0000   1.0000   1.0000   1.0000   1.0000   1.0000   1.0000   1.0000
     1.0000   1.0000   1.0000   1.0000   1.0000   1.0000   1.0000   1.0000
     1.0000   1.0000

          k = 0.3000 0.5196 0.2459 (  1336 PWs)   bands (ev):

    -5.2360  -5.1762  -4.4323  -4.3761  -4.2548  -4.2268  -4.0166  -4.0065
    -3.8952  -3.8257  -1.4164  -1.2560   4.4578   4.5836   6.4037   7.1447
     8.9830   9.2833

     occupation numbers 
     1.0000   1.0000   1.0000   1.0000   1.0000   1.0000   1.0000   1.0000
     1.0000   1.0000   1.0000   1.0000   1.0000   1.0000   1.0000   1.0000
     1.0000   1.0000

          k = 0.3000 0.5196 0.2766 (  1329 PWs)   bands (ev):

    -5.1968  -5.1486  -4.3318  -4.3239  -4.2123  -4.1886  -3.9480  -3.8786
    -3.8103  -3.7861  -1.3489  -1.2581   4.4513   4.5153   6.5801   6.9531
     9.1667   9.3181

     occupation numbers 
     1.0000   1.0000   1.0000   1.0000   1.0000   1.0000   1.0000   1.0000
     1.0000   1.0000   1.0000   1.0000   1.0000   1.0000   1.0000   1.0000
     1.0000   1.0000

          k = 0.3000 0.5196-0.3073 (  1324 PWs)   bands (ev):

    -5.1406  -5.1406  -4.2359  -4.2359  -4.1442  -4.1442  -3.8884  -3.8884
    -3.7850  -3.7850  -1.2720  -1.2720   4.4746   4.4746   6.7650   6.7650
     9.2799   9.2799

     occupation numbers 
     1.0000   1.0000   1.0000   1.0000   1.0000   1.0000   1.0000   1.0000
     1.0000   1.0000   1.0000   1.0000   1.0000   1.0000   1.0000   1.0000
     1.0000   1.0000

          k = 0.3000 0.5774 0.0000 (  1338 PWs)   bands (ev):

    -5.3110  -5.2296  -4.2806  -4.2045  -4.1513  -4.1428  -4.1168  -4.0797
    -3.9845  -3.8943  -1.4843  -1.2320   5.0977   5.3439   5.5980   7.6000
     7.9595   8.1222

     occupation numbers 
     1.0000   1.0000   1.0000   1.0000   1.0000   1.0000   1.0000   1.0000
     1.0000   1.0000   1.0000   1.0000   1.0000   1.0000   1.0000   1.0000
     1.0000   1.0000

          k = 0.3000 0.5774 0.0307 (  1336 PWs)   bands (ev):

    -5.3079  -5.1995  -4.2753  -4.2671  -4.1953  -4.1225  -4.1177  -4.0007
    -3.9406  -3.7999  -1.4716  -1.2359   5.0750   5.3163   5.6018   7.6470
     8.0082   8.1115

     occupation numbers 
     1.0000   1.0000   1.0000   1.0000   1.0000   1.0000   1.0000   1.0000
     1.0000   1.0000   1.0000   1.0000   1.0000   1.0000   1.0000   1.0000
     1.0000   1.0000

          k = 0.3000 0.5774 0.0615 (  1328 PWs)   bands (ev):

    -5.2451  -5.1717  -4.2959  -4.1908  -4.0882  -4.0525  -4.0355  -3.8908
    -3.8379  -3.7349  -1.4221  -1.1850   5.0136   5.2392   5.6287   7.7894
     8.0283   8.1467

     occupation numbers 
     1.0000   1.0000   1.0000   1.0000   1.0000   1.0000   1.0000   1.0000
     1.0000   1.0000   1.0000   1.0000   1.0000   1.0000   1.0000   1.0000
     1.0000   1.0000

          k = 0.3000 0.5774 0.0922 (  1330 PWs)   bands (ev):

    -5.2436  -5.2047  -4.2993  -4.1816  -4.1114  -4.0547  -4.0330  -3.9297
    -3.8995  -3.7664  -1.4119  -1.2262   4.9162   5.1280   5.6747   7.9276
     7.9735   8.3096

     occupation numbers 
     1.0000   1.0000   1.0000   1.0000   1.0000   1.0000   1.0000   1.0000
     1.0000   1.0000   1.0000   1.0000   1.0000   1.0000   1.0000   1.0000
     1.0000   1.0000

          k = 0.3000 0.5774 0.1229 (  1343 PWs)   bands (ev):

    -5.2752  -5.2711  -4.3968  -4.2896  -4.2452  -4.2195  -4.1586  -4.0811
    -4.0690  -3.9528  -1.4362  -1.2757   4.8041   4.9902   5.7469   7.7708
     8.1913   8.4993

     occupation numbers 
     1.0000   1.0000   1.0000   1.0000   1.0000   1.0000   1.0000   1.0000
     1.0000   1.0000   1.0000   1.0000   1.0000   1.0000   1.0000   1.0000
     1.0000   1.0000

          k = 0.3000 0.5774 0.1537 (  1340 PWs)   bands (ev):

    -5.2708  -5.2380  -4.3444  -4.2951  -4.2359  -4.2032  -4.0910  -4.0652
    -3.9867  -3.9760  -1.4134  -1.2625   4.6997   4.8566   5.8478   7.6062
     8.4415   8.7241

     occupation numbers 
     1.0000   1.0000   1.0000   1.0000   1.0000   1.0000   1.0000   1.0000
     1.0000   1.0000   1.0000   1.0000   1.0000   1.0000   1.0000   1.0000
     1.0000   1.0000

          k = 0.3000 0.5774 0.1844 (  1329 PWs)   bands (ev):

    -5.2099  -5.1413  -4.2335  -4.2306  -4.1872  -4.1389  -3.9770  -3.9725
    -3.8514  -3.8132  -1.3372  -1.1934   4.6080   4.7401   5.9755   7.4357
     8.6966   8.9377

     occupation numbers 
     1.0000   1.0000   1.0000   1.0000   1.0000   1.0000   1.0000   1.0000
     1.0000   1.0000   1.0000   1.0000   1.0000   1.0000   1.0000   1.0000
     1.0000   1.0000

          k = 0.3000 0.5774 0.2151 (  1331 PWs)   bands (ev):

    -5.2078  -5.1573  -4.2777  -4.2737  -4.2166  -4.1705  -3.9766  -3.9593
    -3.8843  -3.8225  -1.3361  -1.2132   4.5301   4.6342   6.1213   7.2362
     8.9085   9.0972

     occupation numbers 
     1.0000   1.0000   1.0000   1.0000   1.0000   1.0000   1.0000   1.0000
     1.0000   1.0000   1.0000   1.0000   1.0000   1.0000   1.0000   1.0000
     1.0000   1.0000

          k = 0.3000 0.5774 0.2459 (  1332 PWs)   bands (ev):

    -5.1998  -5.1558  -4.4105  -4.4081  -4.2302  -4.1700  -3.9561  -3.8908
    -3.8602  -3.8252  -1.3189  -1.2177   4.4779   4.5474   6.2835   7.0416
     9.0876   9.2219

     occupation numbers 
     1.0000   1.0000   1.0000   1.0000   1.0000   1.0000   1.0000   1.0000
     1.0000   1.0000   1.0000   1.0000   1.0000   1.0000   1.0000   1.0000
     1.0000   1.0000

          k = 0.3000 0.5774 0.2766 (  1326 PWs)   bands (ev):

    -5.1564  -5.1418  -4.2840  -4.2451  -4.2026  -4.1272  -3.9147  -3.8751
    -3.8291  -3.7953  -1.2568  -1.2189   4.4551   4.4908   6.4607   6.8476
     9.2270   9.2993

     occupation numbers 
     1.0000   1.0000   1.0000   1.0000   1.0000   1.0000   1.0000   1.0000
     1.0000   1.0000   1.0000   1.0000   1.0000   1.0000   1.0000   1.0000
     1.0000   1.0000

          k = 0.3000 0.5774-0.3073 (  1320 PWs)   bands (ev):

    -5.1128  -5.1128  -4.1769  -4.1769  -4.0916  -4.0916  -3.8523  -3.8523
    -3.7877  -3.7877  -1.2047  -1.2047   4.4606   4.4606   6.6526   6.6526
     9.3020   9.3020

     occupation numbers 
     1.0000   1.0000   1.0000   1.0000   1.0000   1.0000   1.0000   1.0000
     1.0000   1.0000   1.0000   1.0000   1.0000   1.0000   1.0000   1.0000
     1.0000   1.0000

     highest occupied level (ev):    10.9038

!    total energy              =    -342.33243676 Ry
     estimated scf accuracy    <       0.00000003 Ry

     The total energy is the sum of the following terms:
     one-electron contribution =     -96.13954598 Ry
     hartree contribution      =      81.02718071 Ry
     xc contribution           =     -94.06324458 Ry
     ewald contribution        =    -233.15682692 Ry

     convergence has been achieved in   9 iterations

     Writing output data file ../tmp/GaN_exc1.save/
 
     init_run     :      1.51s CPU      1.62s WALL (       1 calls)
     electrons    :     31.13s CPU     32.53s WALL (       1 calls)

     Called by init_run:
     wfcinit      :      1.37s CPU      1.44s WALL (       1 calls)
     wfcinit:atom :      0.02s CPU      0.02s WALL (     484 calls)
     wfcinit:wfcr :      1.21s CPU      1.28s WALL (     484 calls)
     potinit      :      0.03s CPU      0.03s WALL (       1 calls)
     hinit0       :      0.09s CPU      0.13s WALL (       1 calls)

     Called by electrons:
     c_bands      :     28.61s CPU     29.83s WALL (       9 calls)
     sum_band     :      2.49s CPU      2.67s WALL (       9 calls)
     v_of_rho     :      0.02s CPU      0.02s WALL (      10 calls)
     v_h          :      0.00s CPU      0.00s WALL (      10 calls)
     v_xc         :      0.02s CPU      0.02s WALL (      10 calls)
     mix_rho      :      0.00s CPU      0.00s WALL (       9 calls)

     Called by c_bands:
     init_us_2    :      0.52s CPU      0.55s WALL (    9196 calls)
     cegterg      :     26.52s CPU     27.68s WALL (    4356 calls)

     Called by sum_band:
     sum_band:wei :      0.00s CPU      0.00s WALL (       9 calls)
     sum_band:loo :      2.49s CPU      2.67s WALL (       9 calls)
     sum_band:buf :      0.05s CPU      0.06s WALL (    4356 calls)
     sum_band:ini :      0.24s CPU      0.25s WALL (    4356 calls)

     Called by *egterg:
     cdiaghg      :      9.11s CPU      9.47s WALL (   18386 calls)
     cegterg:over :      1.94s CPU      2.05s WALL (   14030 calls)
     cegterg:upda :      0.50s CPU      0.52s WALL (   14030 calls)
     cegterg:last :      0.59s CPU      0.60s WALL (   10078 calls)
     cdiaghg:chol :      0.61s CPU      0.64s WALL (   18386 calls)
     cdiaghg:inve :      0.19s CPU      0.20s WALL (   18386 calls)
     cdiaghg:para :      0.93s CPU      0.96s WALL (   36772 calls)
     h_psi        :     14.86s CPU     15.57s WALL (   18870 calls)
     g_psi        :      0.11s CPU      0.12s WALL (   14030 calls)

     Called by h_psi:
     h_psi:calbec :      0.77s CPU      0.81s WALL (   18870 calls)
     vloc_psi     :     13.49s CPU     14.12s WALL (   18870 calls)
     add_vuspsi   :      0.45s CPU      0.48s WALL (   18870 calls)

     General routines
     calbec       :      0.73s CPU      0.78s WALL (   18870 calls)
     fft          :      0.04s CPU      0.08s WALL (     100 calls)
     ffts         :      0.00s CPU      0.00s WALL (       9 calls)
     fftw         :     13.64s CPU     14.32s WALL (  552486 calls)
 
     Parallel routines
 
     PWSCF        :     33.03s CPU     34.74s WALL

 
   This run was terminated on:  18: 5:14  27Mar2023            

=------------------------------------------------------------------------------=
   JOB DONE.
=------------------------------------------------------------------------------=
