
     Program PWSCF v.6.8 starts on 27Mar2023 at 18:29:19 

     This program is part of the open-source Quantum ESPRESSO suite
     for quantum simulation of materials; please cite
         "P. Giannozzi et al., J. Phys.:Condens. Matter 21 395502 (2009);
         "P. Giannozzi et al., J. Phys.:Condens. Matter 29 465901 (2017);
         "P. Giannozzi et al., J. Chem. Phys. 152 154105 (2020);
          URL http://www.quantum-espresso.org", 
     in publications or presentations arising from this work. More details at
     http://www.quantum-espresso.org/quote

     Parallel version (MPI & OpenMP), running on       6 processor cores
     Number of MPI processes:                 6
     Threads/MPI process:                     1

     MPI processes distributed on     1 nodes
     R & G space division:  proc/nbgrp/npool/nimage =       6
     9383 MiB available memory on the printing compute node when the environment starts
 
     Waiting for input...
     Reading input from standard input
Warning: card &CELL ignored
Warning: card / ignored

     Current dimensions of program PWSCF are:
     Max number of different atomic species (ntypx) = 10
     Max number of k-points (npk) =  40000
     Max angular momentum in pseudopotentials (lmaxx) =  4

     Subspace diagonalization in iterative solution of the eigenvalue problem:
     one sub-group per band group will be used
     scalapack distributed-memory algorithm (size of sub-group:  2*  2 procs)

 
     Parallelization info
     --------------------
     sticks:   dense  smooth     PW     G-vecs:    dense   smooth      PW
     Min         251     251     70                12763    12763    1912
     Max         252     252     71                12768    12768    1921
     Sum        1507    1507    421                76595    76595   11489
 
     Using Slab Decomposition
 


     bravais-lattice index     =            4
     lattice parameter (alat)  =       6.0282  a.u.
     unit-cell volume          =     308.6570 (a.u.)^3
     number of atoms/cell      =            4
     number of atomic types    =            2
     number of electrons       =        36.00
     number of Kohn-Sham states=           18
     kinetic-energy cutoff     =     150.0000  Ry
     charge density cutoff     =     600.0000  Ry
     scf convergence threshold =      1.0E-06
     mixing beta               =       0.7000
     number of iterations used =            8  plain     mixing
     Exchange-correlation= PBE
                           (   1   4   3   4   0   0   0)

     celldm(1)=   6.028226  celldm(2)=   0.000000  celldm(3)=   1.626960
     celldm(4)=   0.000000  celldm(5)=   0.000000  celldm(6)=   0.000000

     crystal axes: (cart. coord. in units of alat)
               a(1) = (   1.000000   0.000000   0.000000 )  
               a(2) = (  -0.500000   0.866025   0.000000 )  
               a(3) = (   0.000000   0.000000   1.626960 )  

     reciprocal axes: (cart. coord. in units 2 pi/alat)
               b(1) = (  1.000000  0.577350  0.000000 )  
               b(2) = (  0.000000  1.154701  0.000000 )  
               b(3) = (  0.000000  0.000000  0.614643 )  


     PseudoPot. # 1 for Ga read from file:
     ../pseudo/Ga_ONCV_PBE_sr.upf
     MD5 check sum: e3654b1fbeb096be7359f640ef9d98d7
     Pseudo is Norm-conserving + core correction, Zval = 13.0
     Generated using ONCVPSP code by D. R. Hamann
     Using radial grid of 1902 points,  6 beta functions with: 
                l(1) =   0
                l(2) =   0
                l(3) =   1
                l(4) =   1
                l(5) =   2
                l(6) =   2

     PseudoPot. # 2 for N  read from file:
     ../pseudo/N_ONCV_PBE_sr.upf
     MD5 check sum: 18c6af81dac9c5a2d6d52ed11cf7bfee
     Pseudo is Norm-conserving + core correction, Zval =  5.0
     Generated using ONCVPSP code by D. R. Hamann
     Using radial grid of 1058 points,  4 beta functions with: 
                l(1) =   0
                l(2) =   0
                l(3) =   1
                l(4) =   1

     atomic species   valence    mass     pseudopotential
        Ga            13.00    69.72300     Ga( 1.00)
        N              5.00    14.00700     N ( 1.00)

     12 Sym. Ops. (no inversion) found ( 6 have fractional translation)


                                    s                        frac. trans.

      isym =  1     identity                                     

 cryst.   s( 1) = (     1          0          0      )
                  (     0          1          0      )
                  (     0          0          1      )

 cart.    s( 1) = (  1.0000000  0.0000000  0.0000000 )
                  (  0.0000000  1.0000000  0.0000000 )
                  (  0.0000000  0.0000000  1.0000000 )


      isym =  2     180 deg rotation - cart. axis [0,0,1]        

 cryst.   s( 2) = (    -1          0          0      )    f =(  0.0000000 )
                  (     0         -1          0      )       (  0.0000000 )
                  (     0          0          1      )       ( -0.5000000 )

 cart.    s( 2) = ( -1.0000000  0.0000000  0.0000000 )    f =(  0.0000000 )
                  (  0.0000000 -1.0000000  0.0000000 )       (  0.0000000 )
                  (  0.0000000  0.0000000  1.0000000 )       ( -0.8134800 )


      isym =  3      60 deg rotation - cryst. axis [0,0,1]       

 cryst.   s( 3) = (     1          1          0      )    f =(  0.0000000 )
                  (    -1          0          0      )       (  0.0000000 )
                  (     0          0          1      )       ( -0.5000000 )

 cart.    s( 3) = (  0.5000000 -0.8660254  0.0000000 )    f =(  0.0000000 )
                  (  0.8660254  0.5000000  0.0000000 )       (  0.0000000 )
                  (  0.0000000  0.0000000  1.0000000 )       ( -0.8134800 )


      isym =  4      60 deg rotation - cryst. axis [0,0,-1]      

 cryst.   s( 4) = (     0         -1          0      )    f =(  0.0000000 )
                  (     1          1          0      )       (  0.0000000 )
                  (     0          0          1      )       ( -0.5000000 )

 cart.    s( 4) = (  0.5000000  0.8660254  0.0000000 )    f =(  0.0000000 )
                  ( -0.8660254  0.5000000  0.0000000 )       (  0.0000000 )
                  (  0.0000000  0.0000000  1.0000000 )       ( -0.8134800 )


      isym =  5     120 deg rotation - cryst. axis [0,0,1]       

 cryst.   s( 5) = (     0          1          0      )
                  (    -1         -1          0      )
                  (     0          0          1      )

 cart.    s( 5) = ( -0.5000000 -0.8660254  0.0000000 )
                  (  0.8660254 -0.5000000  0.0000000 )
                  (  0.0000000  0.0000000  1.0000000 )


      isym =  6     120 deg rotation - cryst. axis [0,0,-1]      

 cryst.   s( 6) = (    -1         -1          0      )
                  (     1          0          0      )
                  (     0          0          1      )

 cart.    s( 6) = ( -0.5000000  0.8660254  0.0000000 )
                  ( -0.8660254 -0.5000000  0.0000000 )
                  (  0.0000000  0.0000000  1.0000000 )


      isym =  7     inv. 180 deg rotation - cart. axis [0,1,0]   

 cryst.   s( 7) = (     1          0          0      )    f =(  0.0000000 )
                  (    -1         -1          0      )       (  0.0000000 )
                  (     0          0          1      )       ( -0.5000000 )

 cart.    s( 7) = (  1.0000000  0.0000000  0.0000000 )    f =(  0.0000000 )
                  (  0.0000000 -1.0000000  0.0000000 )       (  0.0000000 )
                  (  0.0000000  0.0000000  1.0000000 )       ( -0.8134800 )


      isym =  8     inv. 180 deg rotation - cart. axis [1,0,0]   

 cryst.   s( 8) = (    -1          0          0      )
                  (     1          1          0      )
                  (     0          0          1      )

 cart.    s( 8) = ( -1.0000000  0.0000000  0.0000000 )
                  (  0.0000000  1.0000000  0.0000000 )
                  (  0.0000000  0.0000000  1.0000000 )


      isym =  9     inv. 180 deg rotation - cryst. axis [1,-1,0] 

 cryst.   s( 9) = (     0          1          0      )    f =(  0.0000000 )
                  (     1          0          0      )       (  0.0000000 )
                  (     0          0          1      )       ( -0.5000000 )

 cart.    s( 9) = ( -0.5000000  0.8660254  0.0000000 )    f =(  0.0000000 )
                  (  0.8660254  0.5000000  0.0000000 )       (  0.0000000 )
                  (  0.0000000  0.0000000  1.0000000 )       ( -0.8134800 )


      isym = 10     inv. 180 deg rotation - cryst. axis [2,1,0]  

 cryst.   s(10) = (    -1         -1          0      )    f =(  0.0000000 )
                  (     0          1          0      )       (  0.0000000 )
                  (     0          0          1      )       ( -0.5000000 )

 cart.    s(10) = ( -0.5000000 -0.8660254  0.0000000 )    f =(  0.0000000 )
                  ( -0.8660254  0.5000000  0.0000000 )       (  0.0000000 )
                  (  0.0000000  0.0000000  1.0000000 )       ( -0.8134800 )


      isym = 11     inv. 180 deg rotation - cryst. axis [0,1,0]  

 cryst.   s(11) = (     1          1          0      )
                  (     0         -1          0      )
                  (     0          0          1      )

 cart.    s(11) = (  0.5000000  0.8660254  0.0000000 )
                  (  0.8660254 -0.5000000  0.0000000 )
                  (  0.0000000  0.0000000  1.0000000 )


      isym = 12     inv. 180 deg rotation - cryst. axis [1,1,0]  

 cryst.   s(12) = (     0         -1          0      )
                  (    -1          0          0      )
                  (     0          0          1      )

 cart.    s(12) = (  0.5000000 -0.8660254  0.0000000 )
                  ( -0.8660254 -0.5000000  0.0000000 )
                  (  0.0000000  0.0000000  1.0000000 )


     point group C_6v (6mm) 
     there are  6 classes
     the character table:

       E     2C6   2C3   C2    3s_v  3s_d 
A_1    1.00  1.00  1.00  1.00  1.00  1.00
A_2    1.00  1.00  1.00  1.00 -1.00 -1.00
B_1    1.00 -1.00  1.00 -1.00  1.00 -1.00
B_2    1.00 -1.00  1.00 -1.00 -1.00  1.00
E_1    2.00  1.00 -1.00 -2.00  0.00  0.00
E_2    2.00 -1.00 -1.00  2.00  0.00  0.00

     the symmetry operations in each class and the name of the first element:

     E        1
          identity                                               
     2C6      3    4
           60 deg rotation - cryst. axis [0,0,1]                 
     2C3      5    6
          120 deg rotation - cryst. axis [0,0,1]                 
     C2       2
          180 deg rotation - cart. axis [0,0,1]                  
     3s_v     8   12   11
          inv. 180 deg rotation - cart. axis [1,0,0]             
     3s_d     7    9   10
          inv. 180 deg rotation - cart. axis [0,1,0]             

   Cartesian axes

     site n.     atom                  positions (alat units)
         1           Ga  tau(   1) = (   0.5000000   0.2886751   0.8119892  )
         2           Ga  tau(   2) = (   0.0000000   0.5773503   1.6254692  )
         3           N   tau(   3) = (   0.5000000   0.2886751   1.4250808  )
         4           N   tau(   4) = (   0.0000000   0.5773503   0.6116008  )

   Crystallographic axes

     site n.     atom                  positions (cryst. coord.)
         1           Ga  tau(   1) = (  0.6666667  0.3333333  0.4990837  )
         2           Ga  tau(   2) = (  0.3333333  0.6666667  0.9990837  )
         3           N   tau(   3) = (  0.6666667  0.3333333  0.8759163  )
         4           N   tau(   4) = (  0.3333333  0.6666667  0.3759163  )

     number of k points=   484
                       cart. coord. in units 2pi/alat
        k(    1) = (   0.0000000   0.0000000   0.0000000), wk =   0.0002500
        k(    2) = (   0.0000000   0.0000000   0.0307322), wk =   0.0005000
        k(    3) = (   0.0000000   0.0000000   0.0614643), wk =   0.0005000
        k(    4) = (   0.0000000   0.0000000   0.0921965), wk =   0.0005000
        k(    5) = (   0.0000000   0.0000000   0.1229287), wk =   0.0005000
        k(    6) = (   0.0000000   0.0000000   0.1536608), wk =   0.0005000
        k(    7) = (   0.0000000   0.0000000   0.1843930), wk =   0.0005000
        k(    8) = (   0.0000000   0.0000000   0.2151251), wk =   0.0005000
        k(    9) = (   0.0000000   0.0000000   0.2458573), wk =   0.0005000
        k(   10) = (   0.0000000   0.0000000   0.2765895), wk =   0.0005000
        k(   11) = (   0.0000000   0.0000000  -0.3073216), wk =   0.0002500
        k(   12) = (   0.0000000   0.0577350   0.0000000), wk =   0.0015000
        k(   13) = (   0.0000000   0.0577350   0.0307322), wk =   0.0030000
        k(   14) = (   0.0000000   0.0577350   0.0614643), wk =   0.0030000
        k(   15) = (   0.0000000   0.0577350   0.0921965), wk =   0.0030000
        k(   16) = (   0.0000000   0.0577350   0.1229287), wk =   0.0030000
        k(   17) = (   0.0000000   0.0577350   0.1536608), wk =   0.0030000
        k(   18) = (   0.0000000   0.0577350   0.1843930), wk =   0.0030000
        k(   19) = (   0.0000000   0.0577350   0.2151251), wk =   0.0030000
        k(   20) = (   0.0000000   0.0577350   0.2458573), wk =   0.0030000
        k(   21) = (   0.0000000   0.0577350   0.2765895), wk =   0.0030000
        k(   22) = (   0.0000000   0.0577350  -0.3073216), wk =   0.0015000
        k(   23) = (   0.0000000   0.1154701   0.0000000), wk =   0.0015000
        k(   24) = (   0.0000000   0.1154701   0.0307322), wk =   0.0030000
        k(   25) = (   0.0000000   0.1154701   0.0614643), wk =   0.0030000
        k(   26) = (   0.0000000   0.1154701   0.0921965), wk =   0.0030000
        k(   27) = (   0.0000000   0.1154701   0.1229287), wk =   0.0030000
        k(   28) = (   0.0000000   0.1154701   0.1536608), wk =   0.0030000
        k(   29) = (   0.0000000   0.1154701   0.1843930), wk =   0.0030000
        k(   30) = (   0.0000000   0.1154701   0.2151251), wk =   0.0030000
        k(   31) = (   0.0000000   0.1154701   0.2458573), wk =   0.0030000
        k(   32) = (   0.0000000   0.1154701   0.2765895), wk =   0.0030000
        k(   33) = (   0.0000000   0.1154701  -0.3073216), wk =   0.0015000
        k(   34) = (   0.0000000   0.1732051   0.0000000), wk =   0.0015000
        k(   35) = (   0.0000000   0.1732051   0.0307322), wk =   0.0030000
        k(   36) = (   0.0000000   0.1732051   0.0614643), wk =   0.0030000
        k(   37) = (   0.0000000   0.1732051   0.0921965), wk =   0.0030000
        k(   38) = (   0.0000000   0.1732051   0.1229287), wk =   0.0030000
        k(   39) = (   0.0000000   0.1732051   0.1536608), wk =   0.0030000
        k(   40) = (   0.0000000   0.1732051   0.1843930), wk =   0.0030000
        k(   41) = (   0.0000000   0.1732051   0.2151251), wk =   0.0030000
        k(   42) = (   0.0000000   0.1732051   0.2458573), wk =   0.0030000
        k(   43) = (   0.0000000   0.1732051   0.2765895), wk =   0.0030000
        k(   44) = (   0.0000000   0.1732051  -0.3073216), wk =   0.0015000
        k(   45) = (   0.0000000   0.2309401   0.0000000), wk =   0.0015000
        k(   46) = (   0.0000000   0.2309401   0.0307322), wk =   0.0030000
        k(   47) = (   0.0000000   0.2309401   0.0614643), wk =   0.0030000
        k(   48) = (   0.0000000   0.2309401   0.0921965), wk =   0.0030000
        k(   49) = (   0.0000000   0.2309401   0.1229287), wk =   0.0030000
        k(   50) = (   0.0000000   0.2309401   0.1536608), wk =   0.0030000
        k(   51) = (   0.0000000   0.2309401   0.1843930), wk =   0.0030000
        k(   52) = (   0.0000000   0.2309401   0.2151251), wk =   0.0030000
        k(   53) = (   0.0000000   0.2309401   0.2458573), wk =   0.0030000
        k(   54) = (   0.0000000   0.2309401   0.2765895), wk =   0.0030000
        k(   55) = (   0.0000000   0.2309401  -0.3073216), wk =   0.0015000
        k(   56) = (   0.0000000   0.2886751   0.0000000), wk =   0.0015000
        k(   57) = (   0.0000000   0.2886751   0.0307322), wk =   0.0030000
        k(   58) = (   0.0000000   0.2886751   0.0614643), wk =   0.0030000
        k(   59) = (   0.0000000   0.2886751   0.0921965), wk =   0.0030000
        k(   60) = (   0.0000000   0.2886751   0.1229287), wk =   0.0030000
        k(   61) = (   0.0000000   0.2886751   0.1536608), wk =   0.0030000
        k(   62) = (   0.0000000   0.2886751   0.1843930), wk =   0.0030000
        k(   63) = (   0.0000000   0.2886751   0.2151251), wk =   0.0030000
        k(   64) = (   0.0000000   0.2886751   0.2458573), wk =   0.0030000
        k(   65) = (   0.0000000   0.2886751   0.2765895), wk =   0.0030000
        k(   66) = (   0.0000000   0.2886751  -0.3073216), wk =   0.0015000
        k(   67) = (   0.0000000   0.3464102   0.0000000), wk =   0.0015000
        k(   68) = (   0.0000000   0.3464102   0.0307322), wk =   0.0030000
        k(   69) = (   0.0000000   0.3464102   0.0614643), wk =   0.0030000
        k(   70) = (   0.0000000   0.3464102   0.0921965), wk =   0.0030000
        k(   71) = (   0.0000000   0.3464102   0.1229287), wk =   0.0030000
        k(   72) = (   0.0000000   0.3464102   0.1536608), wk =   0.0030000
        k(   73) = (   0.0000000   0.3464102   0.1843930), wk =   0.0030000
        k(   74) = (   0.0000000   0.3464102   0.2151251), wk =   0.0030000
        k(   75) = (   0.0000000   0.3464102   0.2458573), wk =   0.0030000
        k(   76) = (   0.0000000   0.3464102   0.2765895), wk =   0.0030000
        k(   77) = (   0.0000000   0.3464102  -0.3073216), wk =   0.0015000
        k(   78) = (   0.0000000   0.4041452   0.0000000), wk =   0.0015000
        k(   79) = (   0.0000000   0.4041452   0.0307322), wk =   0.0030000
        k(   80) = (   0.0000000   0.4041452   0.0614643), wk =   0.0030000
        k(   81) = (   0.0000000   0.4041452   0.0921965), wk =   0.0030000
        k(   82) = (   0.0000000   0.4041452   0.1229287), wk =   0.0030000
        k(   83) = (   0.0000000   0.4041452   0.1536608), wk =   0.0030000
        k(   84) = (   0.0000000   0.4041452   0.1843930), wk =   0.0030000
        k(   85) = (   0.0000000   0.4041452   0.2151251), wk =   0.0030000
        k(   86) = (   0.0000000   0.4041452   0.2458573), wk =   0.0030000
        k(   87) = (   0.0000000   0.4041452   0.2765895), wk =   0.0030000
        k(   88) = (   0.0000000   0.4041452  -0.3073216), wk =   0.0015000
        k(   89) = (   0.0000000   0.4618802   0.0000000), wk =   0.0015000
        k(   90) = (   0.0000000   0.4618802   0.0307322), wk =   0.0030000
        k(   91) = (   0.0000000   0.4618802   0.0614643), wk =   0.0030000
        k(   92) = (   0.0000000   0.4618802   0.0921965), wk =   0.0030000
        k(   93) = (   0.0000000   0.4618802   0.1229287), wk =   0.0030000
        k(   94) = (   0.0000000   0.4618802   0.1536608), wk =   0.0030000
        k(   95) = (   0.0000000   0.4618802   0.1843930), wk =   0.0030000
        k(   96) = (   0.0000000   0.4618802   0.2151251), wk =   0.0030000
        k(   97) = (   0.0000000   0.4618802   0.2458573), wk =   0.0030000
        k(   98) = (   0.0000000   0.4618802   0.2765895), wk =   0.0030000
        k(   99) = (   0.0000000   0.4618802  -0.3073216), wk =   0.0015000
        k(  100) = (   0.0000000   0.5196152   0.0000000), wk =   0.0015000
        k(  101) = (   0.0000000   0.5196152   0.0307322), wk =   0.0030000
        k(  102) = (   0.0000000   0.5196152   0.0614643), wk =   0.0030000
        k(  103) = (   0.0000000   0.5196152   0.0921965), wk =   0.0030000
        k(  104) = (   0.0000000   0.5196152   0.1229287), wk =   0.0030000
        k(  105) = (   0.0000000   0.5196152   0.1536608), wk =   0.0030000
        k(  106) = (   0.0000000   0.5196152   0.1843930), wk =   0.0030000
        k(  107) = (   0.0000000   0.5196152   0.2151251), wk =   0.0030000
        k(  108) = (   0.0000000   0.5196152   0.2458573), wk =   0.0030000
        k(  109) = (   0.0000000   0.5196152   0.2765895), wk =   0.0030000
        k(  110) = (   0.0000000   0.5196152  -0.3073216), wk =   0.0015000
        k(  111) = (   0.0000000  -0.5773503   0.0000000), wk =   0.0007500
        k(  112) = (   0.0000000  -0.5773503   0.0307322), wk =   0.0015000
        k(  113) = (   0.0000000  -0.5773503   0.0614643), wk =   0.0015000
        k(  114) = (   0.0000000  -0.5773503   0.0921965), wk =   0.0015000
        k(  115) = (   0.0000000  -0.5773503   0.1229287), wk =   0.0015000
        k(  116) = (   0.0000000  -0.5773503   0.1536608), wk =   0.0015000
        k(  117) = (   0.0000000  -0.5773503   0.1843930), wk =   0.0015000
        k(  118) = (   0.0000000  -0.5773503   0.2151251), wk =   0.0015000
        k(  119) = (   0.0000000  -0.5773503   0.2458573), wk =   0.0015000
        k(  120) = (   0.0000000  -0.5773503   0.2765895), wk =   0.0015000
        k(  121) = (   0.0000000  -0.5773503  -0.3073216), wk =   0.0007500
        k(  122) = (   0.0500000   0.0866025   0.0000000), wk =   0.0015000
        k(  123) = (   0.0500000   0.0866025   0.0307322), wk =   0.0030000
        k(  124) = (   0.0500000   0.0866025   0.0614643), wk =   0.0030000
        k(  125) = (   0.0500000   0.0866025   0.0921965), wk =   0.0030000
        k(  126) = (   0.0500000   0.0866025   0.1229287), wk =   0.0030000
        k(  127) = (   0.0500000   0.0866025   0.1536608), wk =   0.0030000
        k(  128) = (   0.0500000   0.0866025   0.1843930), wk =   0.0030000
        k(  129) = (   0.0500000   0.0866025   0.2151251), wk =   0.0030000
        k(  130) = (   0.0500000   0.0866025   0.2458573), wk =   0.0030000
        k(  131) = (   0.0500000   0.0866025   0.2765895), wk =   0.0030000
        k(  132) = (   0.0500000   0.0866025  -0.3073216), wk =   0.0015000
        k(  133) = (   0.0500000   0.1443376   0.0000000), wk =   0.0030000
        k(  134) = (   0.0500000   0.1443376   0.0307322), wk =   0.0060000
        k(  135) = (   0.0500000   0.1443376   0.0614643), wk =   0.0060000
        k(  136) = (   0.0500000   0.1443376   0.0921965), wk =   0.0060000
        k(  137) = (   0.0500000   0.1443376   0.1229287), wk =   0.0060000
        k(  138) = (   0.0500000   0.1443376   0.1536608), wk =   0.0060000
        k(  139) = (   0.0500000   0.1443376   0.1843930), wk =   0.0060000
        k(  140) = (   0.0500000   0.1443376   0.2151251), wk =   0.0060000
        k(  141) = (   0.0500000   0.1443376   0.2458573), wk =   0.0060000
        k(  142) = (   0.0500000   0.1443376   0.2765895), wk =   0.0060000
        k(  143) = (   0.0500000   0.1443376  -0.3073216), wk =   0.0030000
        k(  144) = (   0.0500000   0.2020726   0.0000000), wk =   0.0030000
        k(  145) = (   0.0500000   0.2020726   0.0307322), wk =   0.0060000
        k(  146) = (   0.0500000   0.2020726   0.0614643), wk =   0.0060000
        k(  147) = (   0.0500000   0.2020726   0.0921965), wk =   0.0060000
        k(  148) = (   0.0500000   0.2020726   0.1229287), wk =   0.0060000
        k(  149) = (   0.0500000   0.2020726   0.1536608), wk =   0.0060000
        k(  150) = (   0.0500000   0.2020726   0.1843930), wk =   0.0060000
        k(  151) = (   0.0500000   0.2020726   0.2151251), wk =   0.0060000
        k(  152) = (   0.0500000   0.2020726   0.2458573), wk =   0.0060000
        k(  153) = (   0.0500000   0.2020726   0.2765895), wk =   0.0060000
        k(  154) = (   0.0500000   0.2020726  -0.3073216), wk =   0.0030000
        k(  155) = (   0.0500000   0.2598076   0.0000000), wk =   0.0030000
        k(  156) = (   0.0500000   0.2598076   0.0307322), wk =   0.0060000
        k(  157) = (   0.0500000   0.2598076   0.0614643), wk =   0.0060000
        k(  158) = (   0.0500000   0.2598076   0.0921965), wk =   0.0060000
        k(  159) = (   0.0500000   0.2598076   0.1229287), wk =   0.0060000
        k(  160) = (   0.0500000   0.2598076   0.1536608), wk =   0.0060000
        k(  161) = (   0.0500000   0.2598076   0.1843930), wk =   0.0060000
        k(  162) = (   0.0500000   0.2598076   0.2151251), wk =   0.0060000
        k(  163) = (   0.0500000   0.2598076   0.2458573), wk =   0.0060000
        k(  164) = (   0.0500000   0.2598076   0.2765895), wk =   0.0060000
        k(  165) = (   0.0500000   0.2598076  -0.3073216), wk =   0.0030000
        k(  166) = (   0.0500000   0.3175426   0.0000000), wk =   0.0030000
        k(  167) = (   0.0500000   0.3175426   0.0307322), wk =   0.0060000
        k(  168) = (   0.0500000   0.3175426   0.0614643), wk =   0.0060000
        k(  169) = (   0.0500000   0.3175426   0.0921965), wk =   0.0060000
        k(  170) = (   0.0500000   0.3175426   0.1229287), wk =   0.0060000
        k(  171) = (   0.0500000   0.3175426   0.1536608), wk =   0.0060000
        k(  172) = (   0.0500000   0.3175426   0.1843930), wk =   0.0060000
        k(  173) = (   0.0500000   0.3175426   0.2151251), wk =   0.0060000
        k(  174) = (   0.0500000   0.3175426   0.2458573), wk =   0.0060000
        k(  175) = (   0.0500000   0.3175426   0.2765895), wk =   0.0060000
        k(  176) = (   0.0500000   0.3175426  -0.3073216), wk =   0.0030000
        k(  177) = (   0.0500000   0.3752777   0.0000000), wk =   0.0030000
        k(  178) = (   0.0500000   0.3752777   0.0307322), wk =   0.0060000
        k(  179) = (   0.0500000   0.3752777   0.0614643), wk =   0.0060000
        k(  180) = (   0.0500000   0.3752777   0.0921965), wk =   0.0060000
        k(  181) = (   0.0500000   0.3752777   0.1229287), wk =   0.0060000
        k(  182) = (   0.0500000   0.3752777   0.1536608), wk =   0.0060000
        k(  183) = (   0.0500000   0.3752777   0.1843930), wk =   0.0060000
        k(  184) = (   0.0500000   0.3752777   0.2151251), wk =   0.0060000
        k(  185) = (   0.0500000   0.3752777   0.2458573), wk =   0.0060000
        k(  186) = (   0.0500000   0.3752777   0.2765895), wk =   0.0060000
        k(  187) = (   0.0500000   0.3752777  -0.3073216), wk =   0.0030000
        k(  188) = (   0.0500000   0.4330127   0.0000000), wk =   0.0030000
        k(  189) = (   0.0500000   0.4330127   0.0307322), wk =   0.0060000
        k(  190) = (   0.0500000   0.4330127   0.0614643), wk =   0.0060000
        k(  191) = (   0.0500000   0.4330127   0.0921965), wk =   0.0060000
        k(  192) = (   0.0500000   0.4330127   0.1229287), wk =   0.0060000
        k(  193) = (   0.0500000   0.4330127   0.1536608), wk =   0.0060000
        k(  194) = (   0.0500000   0.4330127   0.1843930), wk =   0.0060000
        k(  195) = (   0.0500000   0.4330127   0.2151251), wk =   0.0060000
        k(  196) = (   0.0500000   0.4330127   0.2458573), wk =   0.0060000
        k(  197) = (   0.0500000   0.4330127   0.2765895), wk =   0.0060000
        k(  198) = (   0.0500000   0.4330127  -0.3073216), wk =   0.0030000
        k(  199) = (   0.0500000   0.4907477   0.0000000), wk =   0.0030000
        k(  200) = (   0.0500000   0.4907477   0.0307322), wk =   0.0060000
        k(  201) = (   0.0500000   0.4907477   0.0614643), wk =   0.0060000
        k(  202) = (   0.0500000   0.4907477   0.0921965), wk =   0.0060000
        k(  203) = (   0.0500000   0.4907477   0.1229287), wk =   0.0060000
        k(  204) = (   0.0500000   0.4907477   0.1536608), wk =   0.0060000
        k(  205) = (   0.0500000   0.4907477   0.1843930), wk =   0.0060000
        k(  206) = (   0.0500000   0.4907477   0.2151251), wk =   0.0060000
        k(  207) = (   0.0500000   0.4907477   0.2458573), wk =   0.0060000
        k(  208) = (   0.0500000   0.4907477   0.2765895), wk =   0.0060000
        k(  209) = (   0.0500000   0.4907477  -0.3073216), wk =   0.0030000
        k(  210) = (   0.0500000   0.5484828   0.0000000), wk =   0.0030000
        k(  211) = (   0.0500000   0.5484828   0.0307322), wk =   0.0060000
        k(  212) = (   0.0500000   0.5484828   0.0614643), wk =   0.0060000
        k(  213) = (   0.0500000   0.5484828   0.0921965), wk =   0.0060000
        k(  214) = (   0.0500000   0.5484828   0.1229287), wk =   0.0060000
        k(  215) = (   0.0500000   0.5484828   0.1536608), wk =   0.0060000
        k(  216) = (   0.0500000   0.5484828   0.1843930), wk =   0.0060000
        k(  217) = (   0.0500000   0.5484828   0.2151251), wk =   0.0060000
        k(  218) = (   0.0500000   0.5484828   0.2458573), wk =   0.0060000
        k(  219) = (   0.0500000   0.5484828   0.2765895), wk =   0.0060000
        k(  220) = (   0.0500000   0.5484828  -0.3073216), wk =   0.0030000
        k(  221) = (   0.1000000   0.1732051   0.0000000), wk =   0.0015000
        k(  222) = (   0.1000000   0.1732051   0.0307322), wk =   0.0030000
        k(  223) = (   0.1000000   0.1732051   0.0614643), wk =   0.0030000
        k(  224) = (   0.1000000   0.1732051   0.0921965), wk =   0.0030000
        k(  225) = (   0.1000000   0.1732051   0.1229287), wk =   0.0030000
        k(  226) = (   0.1000000   0.1732051   0.1536608), wk =   0.0030000
        k(  227) = (   0.1000000   0.1732051   0.1843930), wk =   0.0030000
        k(  228) = (   0.1000000   0.1732051   0.2151251), wk =   0.0030000
        k(  229) = (   0.1000000   0.1732051   0.2458573), wk =   0.0030000
        k(  230) = (   0.1000000   0.1732051   0.2765895), wk =   0.0030000
        k(  231) = (   0.1000000   0.1732051  -0.3073216), wk =   0.0015000
        k(  232) = (   0.1000000   0.2309401   0.0000000), wk =   0.0030000
        k(  233) = (   0.1000000   0.2309401   0.0307322), wk =   0.0060000
        k(  234) = (   0.1000000   0.2309401   0.0614643), wk =   0.0060000
        k(  235) = (   0.1000000   0.2309401   0.0921965), wk =   0.0060000
        k(  236) = (   0.1000000   0.2309401   0.1229287), wk =   0.0060000
        k(  237) = (   0.1000000   0.2309401   0.1536608), wk =   0.0060000
        k(  238) = (   0.1000000   0.2309401   0.1843930), wk =   0.0060000
        k(  239) = (   0.1000000   0.2309401   0.2151251), wk =   0.0060000
        k(  240) = (   0.1000000   0.2309401   0.2458573), wk =   0.0060000
        k(  241) = (   0.1000000   0.2309401   0.2765895), wk =   0.0060000
        k(  242) = (   0.1000000   0.2309401  -0.3073216), wk =   0.0030000
        k(  243) = (   0.1000000   0.2886751   0.0000000), wk =   0.0030000
        k(  244) = (   0.1000000   0.2886751   0.0307322), wk =   0.0060000
        k(  245) = (   0.1000000   0.2886751   0.0614643), wk =   0.0060000
        k(  246) = (   0.1000000   0.2886751   0.0921965), wk =   0.0060000
        k(  247) = (   0.1000000   0.2886751   0.1229287), wk =   0.0060000
        k(  248) = (   0.1000000   0.2886751   0.1536608), wk =   0.0060000
        k(  249) = (   0.1000000   0.2886751   0.1843930), wk =   0.0060000
        k(  250) = (   0.1000000   0.2886751   0.2151251), wk =   0.0060000
        k(  251) = (   0.1000000   0.2886751   0.2458573), wk =   0.0060000
        k(  252) = (   0.1000000   0.2886751   0.2765895), wk =   0.0060000
        k(  253) = (   0.1000000   0.2886751  -0.3073216), wk =   0.0030000
        k(  254) = (   0.1000000   0.3464102   0.0000000), wk =   0.0030000
        k(  255) = (   0.1000000   0.3464102   0.0307322), wk =   0.0060000
        k(  256) = (   0.1000000   0.3464102   0.0614643), wk =   0.0060000
        k(  257) = (   0.1000000   0.3464102   0.0921965), wk =   0.0060000
        k(  258) = (   0.1000000   0.3464102   0.1229287), wk =   0.0060000
        k(  259) = (   0.1000000   0.3464102   0.1536608), wk =   0.0060000
        k(  260) = (   0.1000000   0.3464102   0.1843930), wk =   0.0060000
        k(  261) = (   0.1000000   0.3464102   0.2151251), wk =   0.0060000
        k(  262) = (   0.1000000   0.3464102   0.2458573), wk =   0.0060000
        k(  263) = (   0.1000000   0.3464102   0.2765895), wk =   0.0060000
        k(  264) = (   0.1000000   0.3464102  -0.3073216), wk =   0.0030000
        k(  265) = (   0.1000000   0.4041452   0.0000000), wk =   0.0030000
        k(  266) = (   0.1000000   0.4041452   0.0307322), wk =   0.0060000
        k(  267) = (   0.1000000   0.4041452   0.0614643), wk =   0.0060000
        k(  268) = (   0.1000000   0.4041452   0.0921965), wk =   0.0060000
        k(  269) = (   0.1000000   0.4041452   0.1229287), wk =   0.0060000
        k(  270) = (   0.1000000   0.4041452   0.1536608), wk =   0.0060000
        k(  271) = (   0.1000000   0.4041452   0.1843930), wk =   0.0060000
        k(  272) = (   0.1000000   0.4041452   0.2151251), wk =   0.0060000
        k(  273) = (   0.1000000   0.4041452   0.2458573), wk =   0.0060000
        k(  274) = (   0.1000000   0.4041452   0.2765895), wk =   0.0060000
        k(  275) = (   0.1000000   0.4041452  -0.3073216), wk =   0.0030000
        k(  276) = (   0.1000000   0.4618802   0.0000000), wk =   0.0030000
        k(  277) = (   0.1000000   0.4618802   0.0307322), wk =   0.0060000
        k(  278) = (   0.1000000   0.4618802   0.0614643), wk =   0.0060000
        k(  279) = (   0.1000000   0.4618802   0.0921965), wk =   0.0060000
        k(  280) = (   0.1000000   0.4618802   0.1229287), wk =   0.0060000
        k(  281) = (   0.1000000   0.4618802   0.1536608), wk =   0.0060000
        k(  282) = (   0.1000000   0.4618802   0.1843930), wk =   0.0060000
        k(  283) = (   0.1000000   0.4618802   0.2151251), wk =   0.0060000
        k(  284) = (   0.1000000   0.4618802   0.2458573), wk =   0.0060000
        k(  285) = (   0.1000000   0.4618802   0.2765895), wk =   0.0060000
        k(  286) = (   0.1000000   0.4618802  -0.3073216), wk =   0.0030000
        k(  287) = (   0.1000000   0.5196152   0.0000000), wk =   0.0030000
        k(  288) = (   0.1000000   0.5196152   0.0307322), wk =   0.0060000
        k(  289) = (   0.1000000   0.5196152   0.0614643), wk =   0.0060000
        k(  290) = (   0.1000000   0.5196152   0.0921965), wk =   0.0060000
        k(  291) = (   0.1000000   0.5196152   0.1229287), wk =   0.0060000
        k(  292) = (   0.1000000   0.5196152   0.1536608), wk =   0.0060000
        k(  293) = (   0.1000000   0.5196152   0.1843930), wk =   0.0060000
        k(  294) = (   0.1000000   0.5196152   0.2151251), wk =   0.0060000
        k(  295) = (   0.1000000   0.5196152   0.2458573), wk =   0.0060000
        k(  296) = (   0.1000000   0.5196152   0.2765895), wk =   0.0060000
        k(  297) = (   0.1000000   0.5196152  -0.3073216), wk =   0.0030000
        k(  298) = (   0.1000000   0.5773503   0.0000000), wk =   0.0015000
        k(  299) = (   0.1000000   0.5773503   0.0307322), wk =   0.0030000
        k(  300) = (   0.1000000   0.5773503   0.0614643), wk =   0.0030000
        k(  301) = (   0.1000000   0.5773503   0.0921965), wk =   0.0030000
        k(  302) = (   0.1000000   0.5773503   0.1229287), wk =   0.0030000
        k(  303) = (   0.1000000   0.5773503   0.1536608), wk =   0.0030000
        k(  304) = (   0.1000000   0.5773503   0.1843930), wk =   0.0030000
        k(  305) = (   0.1000000   0.5773503   0.2151251), wk =   0.0030000
        k(  306) = (   0.1000000   0.5773503   0.2458573), wk =   0.0030000
        k(  307) = (   0.1000000   0.5773503   0.2765895), wk =   0.0030000
        k(  308) = (   0.1000000   0.5773503  -0.3073216), wk =   0.0015000
        k(  309) = (   0.1500000   0.2598076   0.0000000), wk =   0.0015000
        k(  310) = (   0.1500000   0.2598076   0.0307322), wk =   0.0030000
        k(  311) = (   0.1500000   0.2598076   0.0614643), wk =   0.0030000
        k(  312) = (   0.1500000   0.2598076   0.0921965), wk =   0.0030000
        k(  313) = (   0.1500000   0.2598076   0.1229287), wk =   0.0030000
        k(  314) = (   0.1500000   0.2598076   0.1536608), wk =   0.0030000
        k(  315) = (   0.1500000   0.2598076   0.1843930), wk =   0.0030000
        k(  316) = (   0.1500000   0.2598076   0.2151251), wk =   0.0030000
        k(  317) = (   0.1500000   0.2598076   0.2458573), wk =   0.0030000
        k(  318) = (   0.1500000   0.2598076   0.2765895), wk =   0.0030000
        k(  319) = (   0.1500000   0.2598076  -0.3073216), wk =   0.0015000
        k(  320) = (   0.1500000   0.3175426   0.0000000), wk =   0.0030000
        k(  321) = (   0.1500000   0.3175426   0.0307322), wk =   0.0060000
        k(  322) = (   0.1500000   0.3175426   0.0614643), wk =   0.0060000
        k(  323) = (   0.1500000   0.3175426   0.0921965), wk =   0.0060000
        k(  324) = (   0.1500000   0.3175426   0.1229287), wk =   0.0060000
        k(  325) = (   0.1500000   0.3175426   0.1536608), wk =   0.0060000
        k(  326) = (   0.1500000   0.3175426   0.1843930), wk =   0.0060000
        k(  327) = (   0.1500000   0.3175426   0.2151251), wk =   0.0060000
        k(  328) = (   0.1500000   0.3175426   0.2458573), wk =   0.0060000
        k(  329) = (   0.1500000   0.3175426   0.2765895), wk =   0.0060000
        k(  330) = (   0.1500000   0.3175426  -0.3073216), wk =   0.0030000
        k(  331) = (   0.1500000   0.3752777   0.0000000), wk =   0.0030000
        k(  332) = (   0.1500000   0.3752777   0.0307322), wk =   0.0060000
        k(  333) = (   0.1500000   0.3752777   0.0614643), wk =   0.0060000
        k(  334) = (   0.1500000   0.3752777   0.0921965), wk =   0.0060000
        k(  335) = (   0.1500000   0.3752777   0.1229287), wk =   0.0060000
        k(  336) = (   0.1500000   0.3752777   0.1536608), wk =   0.0060000
        k(  337) = (   0.1500000   0.3752777   0.1843930), wk =   0.0060000
        k(  338) = (   0.1500000   0.3752777   0.2151251), wk =   0.0060000
        k(  339) = (   0.1500000   0.3752777   0.2458573), wk =   0.0060000
        k(  340) = (   0.1500000   0.3752777   0.2765895), wk =   0.0060000
        k(  341) = (   0.1500000   0.3752777  -0.3073216), wk =   0.0030000
        k(  342) = (   0.1500000   0.4330127   0.0000000), wk =   0.0030000
        k(  343) = (   0.1500000   0.4330127   0.0307322), wk =   0.0060000
        k(  344) = (   0.1500000   0.4330127   0.0614643), wk =   0.0060000
        k(  345) = (   0.1500000   0.4330127   0.0921965), wk =   0.0060000
        k(  346) = (   0.1500000   0.4330127   0.1229287), wk =   0.0060000
        k(  347) = (   0.1500000   0.4330127   0.1536608), wk =   0.0060000
        k(  348) = (   0.1500000   0.4330127   0.1843930), wk =   0.0060000
        k(  349) = (   0.1500000   0.4330127   0.2151251), wk =   0.0060000
        k(  350) = (   0.1500000   0.4330127   0.2458573), wk =   0.0060000
        k(  351) = (   0.1500000   0.4330127   0.2765895), wk =   0.0060000
        k(  352) = (   0.1500000   0.4330127  -0.3073216), wk =   0.0030000
        k(  353) = (   0.1500000   0.4907477   0.0000000), wk =   0.0030000
        k(  354) = (   0.1500000   0.4907477   0.0307322), wk =   0.0060000
        k(  355) = (   0.1500000   0.4907477   0.0614643), wk =   0.0060000
        k(  356) = (   0.1500000   0.4907477   0.0921965), wk =   0.0060000
        k(  357) = (   0.1500000   0.4907477   0.1229287), wk =   0.0060000
        k(  358) = (   0.1500000   0.4907477   0.1536608), wk =   0.0060000
        k(  359) = (   0.1500000   0.4907477   0.1843930), wk =   0.0060000
        k(  360) = (   0.1500000   0.4907477   0.2151251), wk =   0.0060000
        k(  361) = (   0.1500000   0.4907477   0.2458573), wk =   0.0060000
        k(  362) = (   0.1500000   0.4907477   0.2765895), wk =   0.0060000
        k(  363) = (   0.1500000   0.4907477  -0.3073216), wk =   0.0030000
        k(  364) = (   0.1500000   0.5484828   0.0000000), wk =   0.0030000
        k(  365) = (   0.1500000   0.5484828   0.0307322), wk =   0.0060000
        k(  366) = (   0.1500000   0.5484828   0.0614643), wk =   0.0060000
        k(  367) = (   0.1500000   0.5484828   0.0921965), wk =   0.0060000
        k(  368) = (   0.1500000   0.5484828   0.1229287), wk =   0.0060000
        k(  369) = (   0.1500000   0.5484828   0.1536608), wk =   0.0060000
        k(  370) = (   0.1500000   0.5484828   0.1843930), wk =   0.0060000
        k(  371) = (   0.1500000   0.5484828   0.2151251), wk =   0.0060000
        k(  372) = (   0.1500000   0.5484828   0.2458573), wk =   0.0060000
        k(  373) = (   0.1500000   0.5484828   0.2765895), wk =   0.0060000
        k(  374) = (   0.1500000   0.5484828  -0.3073216), wk =   0.0030000
        k(  375) = (   0.2000000   0.3464102   0.0000000), wk =   0.0015000
        k(  376) = (   0.2000000   0.3464102   0.0307322), wk =   0.0030000
        k(  377) = (   0.2000000   0.3464102   0.0614643), wk =   0.0030000
        k(  378) = (   0.2000000   0.3464102   0.0921965), wk =   0.0030000
        k(  379) = (   0.2000000   0.3464102   0.1229287), wk =   0.0030000
        k(  380) = (   0.2000000   0.3464102   0.1536608), wk =   0.0030000
        k(  381) = (   0.2000000   0.3464102   0.1843930), wk =   0.0030000
        k(  382) = (   0.2000000   0.3464102   0.2151251), wk =   0.0030000
        k(  383) = (   0.2000000   0.3464102   0.2458573), wk =   0.0030000
        k(  384) = (   0.2000000   0.3464102   0.2765895), wk =   0.0030000
        k(  385) = (   0.2000000   0.3464102  -0.3073216), wk =   0.0015000
        k(  386) = (   0.2000000   0.4041452   0.0000000), wk =   0.0030000
        k(  387) = (   0.2000000   0.4041452   0.0307322), wk =   0.0060000
        k(  388) = (   0.2000000   0.4041452   0.0614643), wk =   0.0060000
        k(  389) = (   0.2000000   0.4041452   0.0921965), wk =   0.0060000
        k(  390) = (   0.2000000   0.4041452   0.1229287), wk =   0.0060000
        k(  391) = (   0.2000000   0.4041452   0.1536608), wk =   0.0060000
        k(  392) = (   0.2000000   0.4041452   0.1843930), wk =   0.0060000
        k(  393) = (   0.2000000   0.4041452   0.2151251), wk =   0.0060000
        k(  394) = (   0.2000000   0.4041452   0.2458573), wk =   0.0060000
        k(  395) = (   0.2000000   0.4041452   0.2765895), wk =   0.0060000
        k(  396) = (   0.2000000   0.4041452  -0.3073216), wk =   0.0030000
        k(  397) = (   0.2000000   0.4618802   0.0000000), wk =   0.0030000
        k(  398) = (   0.2000000   0.4618802   0.0307322), wk =   0.0060000
        k(  399) = (   0.2000000   0.4618802   0.0614643), wk =   0.0060000
        k(  400) = (   0.2000000   0.4618802   0.0921965), wk =   0.0060000
        k(  401) = (   0.2000000   0.4618802   0.1229287), wk =   0.0060000
        k(  402) = (   0.2000000   0.4618802   0.1536608), wk =   0.0060000
        k(  403) = (   0.2000000   0.4618802   0.1843930), wk =   0.0060000
        k(  404) = (   0.2000000   0.4618802   0.2151251), wk =   0.0060000
        k(  405) = (   0.2000000   0.4618802   0.2458573), wk =   0.0060000
        k(  406) = (   0.2000000   0.4618802   0.2765895), wk =   0.0060000
        k(  407) = (   0.2000000   0.4618802  -0.3073216), wk =   0.0030000
        k(  408) = (   0.2000000   0.5196152   0.0000000), wk =   0.0030000
        k(  409) = (   0.2000000   0.5196152   0.0307322), wk =   0.0060000
        k(  410) = (   0.2000000   0.5196152   0.0614643), wk =   0.0060000
        k(  411) = (   0.2000000   0.5196152   0.0921965), wk =   0.0060000
        k(  412) = (   0.2000000   0.5196152   0.1229287), wk =   0.0060000
        k(  413) = (   0.2000000   0.5196152   0.1536608), wk =   0.0060000
        k(  414) = (   0.2000000   0.5196152   0.1843930), wk =   0.0060000
        k(  415) = (   0.2000000   0.5196152   0.2151251), wk =   0.0060000
        k(  416) = (   0.2000000   0.5196152   0.2458573), wk =   0.0060000
        k(  417) = (   0.2000000   0.5196152   0.2765895), wk =   0.0060000
        k(  418) = (   0.2000000   0.5196152  -0.3073216), wk =   0.0030000
        k(  419) = (   0.2000000   0.5773503   0.0000000), wk =   0.0015000
        k(  420) = (   0.2000000   0.5773503   0.0307322), wk =   0.0030000
        k(  421) = (   0.2000000   0.5773503   0.0614643), wk =   0.0030000
        k(  422) = (   0.2000000   0.5773503   0.0921965), wk =   0.0030000
        k(  423) = (   0.2000000   0.5773503   0.1229287), wk =   0.0030000
        k(  424) = (   0.2000000   0.5773503   0.1536608), wk =   0.0030000
        k(  425) = (   0.2000000   0.5773503   0.1843930), wk =   0.0030000
        k(  426) = (   0.2000000   0.5773503   0.2151251), wk =   0.0030000
        k(  427) = (   0.2000000   0.5773503   0.2458573), wk =   0.0030000
        k(  428) = (   0.2000000   0.5773503   0.2765895), wk =   0.0030000
        k(  429) = (   0.2000000   0.5773503  -0.3073216), wk =   0.0015000
        k(  430) = (   0.2500000   0.4330127   0.0000000), wk =   0.0015000
        k(  431) = (   0.2500000   0.4330127   0.0307322), wk =   0.0030000
        k(  432) = (   0.2500000   0.4330127   0.0614643), wk =   0.0030000
        k(  433) = (   0.2500000   0.4330127   0.0921965), wk =   0.0030000
        k(  434) = (   0.2500000   0.4330127   0.1229287), wk =   0.0030000
        k(  435) = (   0.2500000   0.4330127   0.1536608), wk =   0.0030000
        k(  436) = (   0.2500000   0.4330127   0.1843930), wk =   0.0030000
        k(  437) = (   0.2500000   0.4330127   0.2151251), wk =   0.0030000
        k(  438) = (   0.2500000   0.4330127   0.2458573), wk =   0.0030000
        k(  439) = (   0.2500000   0.4330127   0.2765895), wk =   0.0030000
        k(  440) = (   0.2500000   0.4330127  -0.3073216), wk =   0.0015000
        k(  441) = (   0.2500000   0.4907477   0.0000000), wk =   0.0030000
        k(  442) = (   0.2500000   0.4907477   0.0307322), wk =   0.0060000
        k(  443) = (   0.2500000   0.4907477   0.0614643), wk =   0.0060000
        k(  444) = (   0.2500000   0.4907477   0.0921965), wk =   0.0060000
        k(  445) = (   0.2500000   0.4907477   0.1229287), wk =   0.0060000
        k(  446) = (   0.2500000   0.4907477   0.1536608), wk =   0.0060000
        k(  447) = (   0.2500000   0.4907477   0.1843930), wk =   0.0060000
        k(  448) = (   0.2500000   0.4907477   0.2151251), wk =   0.0060000
        k(  449) = (   0.2500000   0.4907477   0.2458573), wk =   0.0060000
        k(  450) = (   0.2500000   0.4907477   0.2765895), wk =   0.0060000
        k(  451) = (   0.2500000   0.4907477  -0.3073216), wk =   0.0030000
        k(  452) = (   0.2500000   0.5484828   0.0000000), wk =   0.0030000
        k(  453) = (   0.2500000   0.5484828   0.0307322), wk =   0.0060000
        k(  454) = (   0.2500000   0.5484828   0.0614643), wk =   0.0060000
        k(  455) = (   0.2500000   0.5484828   0.0921965), wk =   0.0060000
        k(  456) = (   0.2500000   0.5484828   0.1229287), wk =   0.0060000
        k(  457) = (   0.2500000   0.5484828   0.1536608), wk =   0.0060000
        k(  458) = (   0.2500000   0.5484828   0.1843930), wk =   0.0060000
        k(  459) = (   0.2500000   0.5484828   0.2151251), wk =   0.0060000
        k(  460) = (   0.2500000   0.5484828   0.2458573), wk =   0.0060000
        k(  461) = (   0.2500000   0.5484828   0.2765895), wk =   0.0060000
        k(  462) = (   0.2500000   0.5484828  -0.3073216), wk =   0.0030000
        k(  463) = (   0.3000000   0.5196152   0.0000000), wk =   0.0015000
        k(  464) = (   0.3000000   0.5196152   0.0307322), wk =   0.0030000
        k(  465) = (   0.3000000   0.5196152   0.0614643), wk =   0.0030000
        k(  466) = (   0.3000000   0.5196152   0.0921965), wk =   0.0030000
        k(  467) = (   0.3000000   0.5196152   0.1229287), wk =   0.0030000
        k(  468) = (   0.3000000   0.5196152   0.1536608), wk =   0.0030000
        k(  469) = (   0.3000000   0.5196152   0.1843930), wk =   0.0030000
        k(  470) = (   0.3000000   0.5196152   0.2151251), wk =   0.0030000
        k(  471) = (   0.3000000   0.5196152   0.2458573), wk =   0.0030000
        k(  472) = (   0.3000000   0.5196152   0.2765895), wk =   0.0030000
        k(  473) = (   0.3000000   0.5196152  -0.3073216), wk =   0.0015000
        k(  474) = (   0.3000000   0.5773503   0.0000000), wk =   0.0015000
        k(  475) = (   0.3000000   0.5773503   0.0307322), wk =   0.0030000
        k(  476) = (   0.3000000   0.5773503   0.0614643), wk =   0.0030000
        k(  477) = (   0.3000000   0.5773503   0.0921965), wk =   0.0030000
        k(  478) = (   0.3000000   0.5773503   0.1229287), wk =   0.0030000
        k(  479) = (   0.3000000   0.5773503   0.1536608), wk =   0.0030000
        k(  480) = (   0.3000000   0.5773503   0.1843930), wk =   0.0030000
        k(  481) = (   0.3000000   0.5773503   0.2151251), wk =   0.0030000
        k(  482) = (   0.3000000   0.5773503   0.2458573), wk =   0.0030000
        k(  483) = (   0.3000000   0.5773503   0.2765895), wk =   0.0030000
        k(  484) = (   0.3000000   0.5773503  -0.3073216), wk =   0.0015000

                       cryst. coord.
        k(    1) = (   0.0000000   0.0000000   0.0000000), wk =   0.0002500
        k(    2) = (   0.0000000   0.0000000   0.0500000), wk =   0.0005000
        k(    3) = (   0.0000000   0.0000000   0.1000000), wk =   0.0005000
        k(    4) = (   0.0000000   0.0000000   0.1500000), wk =   0.0005000
        k(    5) = (   0.0000000   0.0000000   0.2000000), wk =   0.0005000
        k(    6) = (   0.0000000   0.0000000   0.2500000), wk =   0.0005000
        k(    7) = (   0.0000000   0.0000000   0.3000000), wk =   0.0005000
        k(    8) = (   0.0000000   0.0000000   0.3500000), wk =   0.0005000
        k(    9) = (   0.0000000   0.0000000   0.4000000), wk =   0.0005000
        k(   10) = (   0.0000000   0.0000000   0.4500000), wk =   0.0005000
        k(   11) = (   0.0000000   0.0000000  -0.5000000), wk =   0.0002500
        k(   12) = (   0.0000000   0.0500000   0.0000000), wk =   0.0015000
        k(   13) = (   0.0000000   0.0500000   0.0500000), wk =   0.0030000
        k(   14) = (   0.0000000   0.0500000   0.1000000), wk =   0.0030000
        k(   15) = (   0.0000000   0.0500000   0.1500000), wk =   0.0030000
        k(   16) = (   0.0000000   0.0500000   0.2000000), wk =   0.0030000
        k(   17) = (   0.0000000   0.0500000   0.2500000), wk =   0.0030000
        k(   18) = (   0.0000000   0.0500000   0.3000000), wk =   0.0030000
        k(   19) = (   0.0000000   0.0500000   0.3500000), wk =   0.0030000
        k(   20) = (   0.0000000   0.0500000   0.4000000), wk =   0.0030000
        k(   21) = (   0.0000000   0.0500000   0.4500000), wk =   0.0030000
        k(   22) = (   0.0000000   0.0500000  -0.5000000), wk =   0.0015000
        k(   23) = (   0.0000000   0.1000000   0.0000000), wk =   0.0015000
        k(   24) = (   0.0000000   0.1000000   0.0500000), wk =   0.0030000
        k(   25) = (   0.0000000   0.1000000   0.1000000), wk =   0.0030000
        k(   26) = (   0.0000000   0.1000000   0.1500000), wk =   0.0030000
        k(   27) = (   0.0000000   0.1000000   0.2000000), wk =   0.0030000
        k(   28) = (   0.0000000   0.1000000   0.2500000), wk =   0.0030000
        k(   29) = (   0.0000000   0.1000000   0.3000000), wk =   0.0030000
        k(   30) = (   0.0000000   0.1000000   0.3500000), wk =   0.0030000
        k(   31) = (   0.0000000   0.1000000   0.4000000), wk =   0.0030000
        k(   32) = (   0.0000000   0.1000000   0.4500000), wk =   0.0030000
        k(   33) = (   0.0000000   0.1000000  -0.5000000), wk =   0.0015000
        k(   34) = (   0.0000000   0.1500000   0.0000000), wk =   0.0015000
        k(   35) = (   0.0000000   0.1500000   0.0500000), wk =   0.0030000
        k(   36) = (   0.0000000   0.1500000   0.1000000), wk =   0.0030000
        k(   37) = (   0.0000000   0.1500000   0.1500000), wk =   0.0030000
        k(   38) = (   0.0000000   0.1500000   0.2000000), wk =   0.0030000
        k(   39) = (   0.0000000   0.1500000   0.2500000), wk =   0.0030000
        k(   40) = (   0.0000000   0.1500000   0.3000000), wk =   0.0030000
        k(   41) = (   0.0000000   0.1500000   0.3500000), wk =   0.0030000
        k(   42) = (   0.0000000   0.1500000   0.4000000), wk =   0.0030000
        k(   43) = (   0.0000000   0.1500000   0.4500000), wk =   0.0030000
        k(   44) = (   0.0000000   0.1500000  -0.5000000), wk =   0.0015000
        k(   45) = (   0.0000000   0.2000000   0.0000000), wk =   0.0015000
        k(   46) = (   0.0000000   0.2000000   0.0500000), wk =   0.0030000
        k(   47) = (   0.0000000   0.2000000   0.1000000), wk =   0.0030000
        k(   48) = (   0.0000000   0.2000000   0.1500000), wk =   0.0030000
        k(   49) = (   0.0000000   0.2000000   0.2000000), wk =   0.0030000
        k(   50) = (   0.0000000   0.2000000   0.2500000), wk =   0.0030000
        k(   51) = (   0.0000000   0.2000000   0.3000000), wk =   0.0030000
        k(   52) = (   0.0000000   0.2000000   0.3500000), wk =   0.0030000
        k(   53) = (   0.0000000   0.2000000   0.4000000), wk =   0.0030000
        k(   54) = (   0.0000000   0.2000000   0.4500000), wk =   0.0030000
        k(   55) = (   0.0000000   0.2000000  -0.5000000), wk =   0.0015000
        k(   56) = (   0.0000000   0.2500000   0.0000000), wk =   0.0015000
        k(   57) = (   0.0000000   0.2500000   0.0500000), wk =   0.0030000
        k(   58) = (   0.0000000   0.2500000   0.1000000), wk =   0.0030000
        k(   59) = (   0.0000000   0.2500000   0.1500000), wk =   0.0030000
        k(   60) = (   0.0000000   0.2500000   0.2000000), wk =   0.0030000
        k(   61) = (   0.0000000   0.2500000   0.2500000), wk =   0.0030000
        k(   62) = (   0.0000000   0.2500000   0.3000000), wk =   0.0030000
        k(   63) = (   0.0000000   0.2500000   0.3500000), wk =   0.0030000
        k(   64) = (   0.0000000   0.2500000   0.4000000), wk =   0.0030000
        k(   65) = (   0.0000000   0.2500000   0.4500000), wk =   0.0030000
        k(   66) = (   0.0000000   0.2500000  -0.5000000), wk =   0.0015000
        k(   67) = (   0.0000000   0.3000000   0.0000000), wk =   0.0015000
        k(   68) = (   0.0000000   0.3000000   0.0500000), wk =   0.0030000
        k(   69) = (   0.0000000   0.3000000   0.1000000), wk =   0.0030000
        k(   70) = (   0.0000000   0.3000000   0.1500000), wk =   0.0030000
        k(   71) = (   0.0000000   0.3000000   0.2000000), wk =   0.0030000
        k(   72) = (   0.0000000   0.3000000   0.2500000), wk =   0.0030000
        k(   73) = (   0.0000000   0.3000000   0.3000000), wk =   0.0030000
        k(   74) = (   0.0000000   0.3000000   0.3500000), wk =   0.0030000
        k(   75) = (   0.0000000   0.3000000   0.4000000), wk =   0.0030000
        k(   76) = (   0.0000000   0.3000000   0.4500000), wk =   0.0030000
        k(   77) = (   0.0000000   0.3000000  -0.5000000), wk =   0.0015000
        k(   78) = (   0.0000000   0.3500000   0.0000000), wk =   0.0015000
        k(   79) = (   0.0000000   0.3500000   0.0500000), wk =   0.0030000
        k(   80) = (   0.0000000   0.3500000   0.1000000), wk =   0.0030000
        k(   81) = (   0.0000000   0.3500000   0.1500000), wk =   0.0030000
        k(   82) = (   0.0000000   0.3500000   0.2000000), wk =   0.0030000
        k(   83) = (   0.0000000   0.3500000   0.2500000), wk =   0.0030000
        k(   84) = (   0.0000000   0.3500000   0.3000000), wk =   0.0030000
        k(   85) = (   0.0000000   0.3500000   0.3500000), wk =   0.0030000
        k(   86) = (   0.0000000   0.3500000   0.4000000), wk =   0.0030000
        k(   87) = (   0.0000000   0.3500000   0.4500000), wk =   0.0030000
        k(   88) = (   0.0000000   0.3500000  -0.5000000), wk =   0.0015000
        k(   89) = (   0.0000000   0.4000000   0.0000000), wk =   0.0015000
        k(   90) = (   0.0000000   0.4000000   0.0500000), wk =   0.0030000
        k(   91) = (   0.0000000   0.4000000   0.1000000), wk =   0.0030000
        k(   92) = (   0.0000000   0.4000000   0.1500000), wk =   0.0030000
        k(   93) = (   0.0000000   0.4000000   0.2000000), wk =   0.0030000
        k(   94) = (   0.0000000   0.4000000   0.2500000), wk =   0.0030000
        k(   95) = (   0.0000000   0.4000000   0.3000000), wk =   0.0030000
        k(   96) = (   0.0000000   0.4000000   0.3500000), wk =   0.0030000
        k(   97) = (   0.0000000   0.4000000   0.4000000), wk =   0.0030000
        k(   98) = (   0.0000000   0.4000000   0.4500000), wk =   0.0030000
        k(   99) = (   0.0000000   0.4000000  -0.5000000), wk =   0.0015000
        k(  100) = (   0.0000000   0.4500000   0.0000000), wk =   0.0015000
        k(  101) = (   0.0000000   0.4500000   0.0500000), wk =   0.0030000
        k(  102) = (   0.0000000   0.4500000   0.1000000), wk =   0.0030000
        k(  103) = (   0.0000000   0.4500000   0.1500000), wk =   0.0030000
        k(  104) = (   0.0000000   0.4500000   0.2000000), wk =   0.0030000
        k(  105) = (   0.0000000   0.4500000   0.2500000), wk =   0.0030000
        k(  106) = (   0.0000000   0.4500000   0.3000000), wk =   0.0030000
        k(  107) = (   0.0000000   0.4500000   0.3500000), wk =   0.0030000
        k(  108) = (   0.0000000   0.4500000   0.4000000), wk =   0.0030000
        k(  109) = (   0.0000000   0.4500000   0.4500000), wk =   0.0030000
        k(  110) = (   0.0000000   0.4500000  -0.5000000), wk =   0.0015000
        k(  111) = (   0.0000000  -0.5000000   0.0000000), wk =   0.0007500
        k(  112) = (   0.0000000  -0.5000000   0.0500000), wk =   0.0015000
        k(  113) = (   0.0000000  -0.5000000   0.1000000), wk =   0.0015000
        k(  114) = (   0.0000000  -0.5000000   0.1500000), wk =   0.0015000
        k(  115) = (   0.0000000  -0.5000000   0.2000000), wk =   0.0015000
        k(  116) = (   0.0000000  -0.5000000   0.2500000), wk =   0.0015000
        k(  117) = (   0.0000000  -0.5000000   0.3000000), wk =   0.0015000
        k(  118) = (   0.0000000  -0.5000000   0.3500000), wk =   0.0015000
        k(  119) = (   0.0000000  -0.5000000   0.4000000), wk =   0.0015000
        k(  120) = (   0.0000000  -0.5000000   0.4500000), wk =   0.0015000
        k(  121) = (   0.0000000  -0.5000000  -0.5000000), wk =   0.0007500
        k(  122) = (   0.0500000   0.0500000   0.0000000), wk =   0.0015000
        k(  123) = (   0.0500000   0.0500000   0.0500000), wk =   0.0030000
        k(  124) = (   0.0500000   0.0500000   0.1000000), wk =   0.0030000
        k(  125) = (   0.0500000   0.0500000   0.1500000), wk =   0.0030000
        k(  126) = (   0.0500000   0.0500000   0.2000000), wk =   0.0030000
        k(  127) = (   0.0500000   0.0500000   0.2500000), wk =   0.0030000
        k(  128) = (   0.0500000   0.0500000   0.3000000), wk =   0.0030000
        k(  129) = (   0.0500000   0.0500000   0.3500000), wk =   0.0030000
        k(  130) = (   0.0500000   0.0500000   0.4000000), wk =   0.0030000
        k(  131) = (   0.0500000   0.0500000   0.4500000), wk =   0.0030000
        k(  132) = (   0.0500000   0.0500000  -0.5000000), wk =   0.0015000
        k(  133) = (   0.0500000   0.1000000   0.0000000), wk =   0.0030000
        k(  134) = (   0.0500000   0.1000000   0.0500000), wk =   0.0060000
        k(  135) = (   0.0500000   0.1000000   0.1000000), wk =   0.0060000
        k(  136) = (   0.0500000   0.1000000   0.1500000), wk =   0.0060000
        k(  137) = (   0.0500000   0.1000000   0.2000000), wk =   0.0060000
        k(  138) = (   0.0500000   0.1000000   0.2500000), wk =   0.0060000
        k(  139) = (   0.0500000   0.1000000   0.3000000), wk =   0.0060000
        k(  140) = (   0.0500000   0.1000000   0.3500000), wk =   0.0060000
        k(  141) = (   0.0500000   0.1000000   0.4000000), wk =   0.0060000
        k(  142) = (   0.0500000   0.1000000   0.4500000), wk =   0.0060000
        k(  143) = (   0.0500000   0.1000000  -0.5000000), wk =   0.0030000
        k(  144) = (   0.0500000   0.1500000   0.0000000), wk =   0.0030000
        k(  145) = (   0.0500000   0.1500000   0.0500000), wk =   0.0060000
        k(  146) = (   0.0500000   0.1500000   0.1000000), wk =   0.0060000
        k(  147) = (   0.0500000   0.1500000   0.1500000), wk =   0.0060000
        k(  148) = (   0.0500000   0.1500000   0.2000000), wk =   0.0060000
        k(  149) = (   0.0500000   0.1500000   0.2500000), wk =   0.0060000
        k(  150) = (   0.0500000   0.1500000   0.3000000), wk =   0.0060000
        k(  151) = (   0.0500000   0.1500000   0.3500000), wk =   0.0060000
        k(  152) = (   0.0500000   0.1500000   0.4000000), wk =   0.0060000
        k(  153) = (   0.0500000   0.1500000   0.4500000), wk =   0.0060000
        k(  154) = (   0.0500000   0.1500000  -0.5000000), wk =   0.0030000
        k(  155) = (   0.0500000   0.2000000   0.0000000), wk =   0.0030000
        k(  156) = (   0.0500000   0.2000000   0.0500000), wk =   0.0060000
        k(  157) = (   0.0500000   0.2000000   0.1000000), wk =   0.0060000
        k(  158) = (   0.0500000   0.2000000   0.1500000), wk =   0.0060000
        k(  159) = (   0.0500000   0.2000000   0.2000000), wk =   0.0060000
        k(  160) = (   0.0500000   0.2000000   0.2500000), wk =   0.0060000
        k(  161) = (   0.0500000   0.2000000   0.3000000), wk =   0.0060000
        k(  162) = (   0.0500000   0.2000000   0.3500000), wk =   0.0060000
        k(  163) = (   0.0500000   0.2000000   0.4000000), wk =   0.0060000
        k(  164) = (   0.0500000   0.2000000   0.4500000), wk =   0.0060000
        k(  165) = (   0.0500000   0.2000000  -0.5000000), wk =   0.0030000
        k(  166) = (   0.0500000   0.2500000   0.0000000), wk =   0.0030000
        k(  167) = (   0.0500000   0.2500000   0.0500000), wk =   0.0060000
        k(  168) = (   0.0500000   0.2500000   0.1000000), wk =   0.0060000
        k(  169) = (   0.0500000   0.2500000   0.1500000), wk =   0.0060000
        k(  170) = (   0.0500000   0.2500000   0.2000000), wk =   0.0060000
        k(  171) = (   0.0500000   0.2500000   0.2500000), wk =   0.0060000
        k(  172) = (   0.0500000   0.2500000   0.3000000), wk =   0.0060000
        k(  173) = (   0.0500000   0.2500000   0.3500000), wk =   0.0060000
        k(  174) = (   0.0500000   0.2500000   0.4000000), wk =   0.0060000
        k(  175) = (   0.0500000   0.2500000   0.4500000), wk =   0.0060000
        k(  176) = (   0.0500000   0.2500000  -0.5000000), wk =   0.0030000
        k(  177) = (   0.0500000   0.3000000   0.0000000), wk =   0.0030000
        k(  178) = (   0.0500000   0.3000000   0.0500000), wk =   0.0060000
        k(  179) = (   0.0500000   0.3000000   0.1000000), wk =   0.0060000
        k(  180) = (   0.0500000   0.3000000   0.1500000), wk =   0.0060000
        k(  181) = (   0.0500000   0.3000000   0.2000000), wk =   0.0060000
        k(  182) = (   0.0500000   0.3000000   0.2500000), wk =   0.0060000
        k(  183) = (   0.0500000   0.3000000   0.3000000), wk =   0.0060000
        k(  184) = (   0.0500000   0.3000000   0.3500000), wk =   0.0060000
        k(  185) = (   0.0500000   0.3000000   0.4000000), wk =   0.0060000
        k(  186) = (   0.0500000   0.3000000   0.4500000), wk =   0.0060000
        k(  187) = (   0.0500000   0.3000000  -0.5000000), wk =   0.0030000
        k(  188) = (   0.0500000   0.3500000   0.0000000), wk =   0.0030000
        k(  189) = (   0.0500000   0.3500000   0.0500000), wk =   0.0060000
        k(  190) = (   0.0500000   0.3500000   0.1000000), wk =   0.0060000
        k(  191) = (   0.0500000   0.3500000   0.1500000), wk =   0.0060000
        k(  192) = (   0.0500000   0.3500000   0.2000000), wk =   0.0060000
        k(  193) = (   0.0500000   0.3500000   0.2500000), wk =   0.0060000
        k(  194) = (   0.0500000   0.3500000   0.3000000), wk =   0.0060000
        k(  195) = (   0.0500000   0.3500000   0.3500000), wk =   0.0060000
        k(  196) = (   0.0500000   0.3500000   0.4000000), wk =   0.0060000
        k(  197) = (   0.0500000   0.3500000   0.4500000), wk =   0.0060000
        k(  198) = (   0.0500000   0.3500000  -0.5000000), wk =   0.0030000
        k(  199) = (   0.0500000   0.4000000   0.0000000), wk =   0.0030000
        k(  200) = (   0.0500000   0.4000000   0.0500000), wk =   0.0060000
        k(  201) = (   0.0500000   0.4000000   0.1000000), wk =   0.0060000
        k(  202) = (   0.0500000   0.4000000   0.1500000), wk =   0.0060000
        k(  203) = (   0.0500000   0.4000000   0.2000000), wk =   0.0060000
        k(  204) = (   0.0500000   0.4000000   0.2500000), wk =   0.0060000
        k(  205) = (   0.0500000   0.4000000   0.3000000), wk =   0.0060000
        k(  206) = (   0.0500000   0.4000000   0.3500000), wk =   0.0060000
        k(  207) = (   0.0500000   0.4000000   0.4000000), wk =   0.0060000
        k(  208) = (   0.0500000   0.4000000   0.4500000), wk =   0.0060000
        k(  209) = (   0.0500000   0.4000000  -0.5000000), wk =   0.0030000
        k(  210) = (   0.0500000   0.4500000   0.0000000), wk =   0.0030000
        k(  211) = (   0.0500000   0.4500000   0.0500000), wk =   0.0060000
        k(  212) = (   0.0500000   0.4500000   0.1000000), wk =   0.0060000
        k(  213) = (   0.0500000   0.4500000   0.1500000), wk =   0.0060000
        k(  214) = (   0.0500000   0.4500000   0.2000000), wk =   0.0060000
        k(  215) = (   0.0500000   0.4500000   0.2500000), wk =   0.0060000
        k(  216) = (   0.0500000   0.4500000   0.3000000), wk =   0.0060000
        k(  217) = (   0.0500000   0.4500000   0.3500000), wk =   0.0060000
        k(  218) = (   0.0500000   0.4500000   0.4000000), wk =   0.0060000
        k(  219) = (   0.0500000   0.4500000   0.4500000), wk =   0.0060000
        k(  220) = (   0.0500000   0.4500000  -0.5000000), wk =   0.0030000
        k(  221) = (   0.1000000   0.1000000   0.0000000), wk =   0.0015000
        k(  222) = (   0.1000000   0.1000000   0.0500000), wk =   0.0030000
        k(  223) = (   0.1000000   0.1000000   0.1000000), wk =   0.0030000
        k(  224) = (   0.1000000   0.1000000   0.1500000), wk =   0.0030000
        k(  225) = (   0.1000000   0.1000000   0.2000000), wk =   0.0030000
        k(  226) = (   0.1000000   0.1000000   0.2500000), wk =   0.0030000
        k(  227) = (   0.1000000   0.1000000   0.3000000), wk =   0.0030000
        k(  228) = (   0.1000000   0.1000000   0.3500000), wk =   0.0030000
        k(  229) = (   0.1000000   0.1000000   0.4000000), wk =   0.0030000
        k(  230) = (   0.1000000   0.1000000   0.4500000), wk =   0.0030000
        k(  231) = (   0.1000000   0.1000000  -0.5000000), wk =   0.0015000
        k(  232) = (   0.1000000   0.1500000   0.0000000), wk =   0.0030000
        k(  233) = (   0.1000000   0.1500000   0.0500000), wk =   0.0060000
        k(  234) = (   0.1000000   0.1500000   0.1000000), wk =   0.0060000
        k(  235) = (   0.1000000   0.1500000   0.1500000), wk =   0.0060000
        k(  236) = (   0.1000000   0.1500000   0.2000000), wk =   0.0060000
        k(  237) = (   0.1000000   0.1500000   0.2500000), wk =   0.0060000
        k(  238) = (   0.1000000   0.1500000   0.3000000), wk =   0.0060000
        k(  239) = (   0.1000000   0.1500000   0.3500000), wk =   0.0060000
        k(  240) = (   0.1000000   0.1500000   0.4000000), wk =   0.0060000
        k(  241) = (   0.1000000   0.1500000   0.4500000), wk =   0.0060000
        k(  242) = (   0.1000000   0.1500000  -0.5000000), wk =   0.0030000
        k(  243) = (   0.1000000   0.2000000   0.0000000), wk =   0.0030000
        k(  244) = (   0.1000000   0.2000000   0.0500000), wk =   0.0060000
        k(  245) = (   0.1000000   0.2000000   0.1000000), wk =   0.0060000
        k(  246) = (   0.1000000   0.2000000   0.1500000), wk =   0.0060000
        k(  247) = (   0.1000000   0.2000000   0.2000000), wk =   0.0060000
        k(  248) = (   0.1000000   0.2000000   0.2500000), wk =   0.0060000
        k(  249) = (   0.1000000   0.2000000   0.3000000), wk =   0.0060000
        k(  250) = (   0.1000000   0.2000000   0.3500000), wk =   0.0060000
        k(  251) = (   0.1000000   0.2000000   0.4000000), wk =   0.0060000
        k(  252) = (   0.1000000   0.2000000   0.4500000), wk =   0.0060000
        k(  253) = (   0.1000000   0.2000000  -0.5000000), wk =   0.0030000
        k(  254) = (   0.1000000   0.2500000   0.0000000), wk =   0.0030000
        k(  255) = (   0.1000000   0.2500000   0.0500000), wk =   0.0060000
        k(  256) = (   0.1000000   0.2500000   0.1000000), wk =   0.0060000
        k(  257) = (   0.1000000   0.2500000   0.1500000), wk =   0.0060000
        k(  258) = (   0.1000000   0.2500000   0.2000000), wk =   0.0060000
        k(  259) = (   0.1000000   0.2500000   0.2500000), wk =   0.0060000
        k(  260) = (   0.1000000   0.2500000   0.3000000), wk =   0.0060000
        k(  261) = (   0.1000000   0.2500000   0.3500000), wk =   0.0060000
        k(  262) = (   0.1000000   0.2500000   0.4000000), wk =   0.0060000
        k(  263) = (   0.1000000   0.2500000   0.4500000), wk =   0.0060000
        k(  264) = (   0.1000000   0.2500000  -0.5000000), wk =   0.0030000
        k(  265) = (   0.1000000   0.3000000   0.0000000), wk =   0.0030000
        k(  266) = (   0.1000000   0.3000000   0.0500000), wk =   0.0060000
        k(  267) = (   0.1000000   0.3000000   0.1000000), wk =   0.0060000
        k(  268) = (   0.1000000   0.3000000   0.1500000), wk =   0.0060000
        k(  269) = (   0.1000000   0.3000000   0.2000000), wk =   0.0060000
        k(  270) = (   0.1000000   0.3000000   0.2500000), wk =   0.0060000
        k(  271) = (   0.1000000   0.3000000   0.3000000), wk =   0.0060000
        k(  272) = (   0.1000000   0.3000000   0.3500000), wk =   0.0060000
        k(  273) = (   0.1000000   0.3000000   0.4000000), wk =   0.0060000
        k(  274) = (   0.1000000   0.3000000   0.4500000), wk =   0.0060000
        k(  275) = (   0.1000000   0.3000000  -0.5000000), wk =   0.0030000
        k(  276) = (   0.1000000   0.3500000   0.0000000), wk =   0.0030000
        k(  277) = (   0.1000000   0.3500000   0.0500000), wk =   0.0060000
        k(  278) = (   0.1000000   0.3500000   0.1000000), wk =   0.0060000
        k(  279) = (   0.1000000   0.3500000   0.1500000), wk =   0.0060000
        k(  280) = (   0.1000000   0.3500000   0.2000000), wk =   0.0060000
        k(  281) = (   0.1000000   0.3500000   0.2500000), wk =   0.0060000
        k(  282) = (   0.1000000   0.3500000   0.3000000), wk =   0.0060000
        k(  283) = (   0.1000000   0.3500000   0.3500000), wk =   0.0060000
        k(  284) = (   0.1000000   0.3500000   0.4000000), wk =   0.0060000
        k(  285) = (   0.1000000   0.3500000   0.4500000), wk =   0.0060000
        k(  286) = (   0.1000000   0.3500000  -0.5000000), wk =   0.0030000
        k(  287) = (   0.1000000   0.4000000   0.0000000), wk =   0.0030000
        k(  288) = (   0.1000000   0.4000000   0.0500000), wk =   0.0060000
        k(  289) = (   0.1000000   0.4000000   0.1000000), wk =   0.0060000
        k(  290) = (   0.1000000   0.4000000   0.1500000), wk =   0.0060000
        k(  291) = (   0.1000000   0.4000000   0.2000000), wk =   0.0060000
        k(  292) = (   0.1000000   0.4000000   0.2500000), wk =   0.0060000
        k(  293) = (   0.1000000   0.4000000   0.3000000), wk =   0.0060000
        k(  294) = (   0.1000000   0.4000000   0.3500000), wk =   0.0060000
        k(  295) = (   0.1000000   0.4000000   0.4000000), wk =   0.0060000
        k(  296) = (   0.1000000   0.4000000   0.4500000), wk =   0.0060000
        k(  297) = (   0.1000000   0.4000000  -0.5000000), wk =   0.0030000
        k(  298) = (   0.1000000   0.4500000   0.0000000), wk =   0.0015000
        k(  299) = (   0.1000000   0.4500000   0.0500000), wk =   0.0030000
        k(  300) = (   0.1000000   0.4500000   0.1000000), wk =   0.0030000
        k(  301) = (   0.1000000   0.4500000   0.1500000), wk =   0.0030000
        k(  302) = (   0.1000000   0.4500000   0.2000000), wk =   0.0030000
        k(  303) = (   0.1000000   0.4500000   0.2500000), wk =   0.0030000
        k(  304) = (   0.1000000   0.4500000   0.3000000), wk =   0.0030000
        k(  305) = (   0.1000000   0.4500000   0.3500000), wk =   0.0030000
        k(  306) = (   0.1000000   0.4500000   0.4000000), wk =   0.0030000
        k(  307) = (   0.1000000   0.4500000   0.4500000), wk =   0.0030000
        k(  308) = (   0.1000000   0.4500000  -0.5000000), wk =   0.0015000
        k(  309) = (   0.1500000   0.1500000   0.0000000), wk =   0.0015000
        k(  310) = (   0.1500000   0.1500000   0.0500000), wk =   0.0030000
        k(  311) = (   0.1500000   0.1500000   0.1000000), wk =   0.0030000
        k(  312) = (   0.1500000   0.1500000   0.1500000), wk =   0.0030000
        k(  313) = (   0.1500000   0.1500000   0.2000000), wk =   0.0030000
        k(  314) = (   0.1500000   0.1500000   0.2500000), wk =   0.0030000
        k(  315) = (   0.1500000   0.1500000   0.3000000), wk =   0.0030000
        k(  316) = (   0.1500000   0.1500000   0.3500000), wk =   0.0030000
        k(  317) = (   0.1500000   0.1500000   0.4000000), wk =   0.0030000
        k(  318) = (   0.1500000   0.1500000   0.4500000), wk =   0.0030000
        k(  319) = (   0.1500000   0.1500000  -0.5000000), wk =   0.0015000
        k(  320) = (   0.1500000   0.2000000   0.0000000), wk =   0.0030000
        k(  321) = (   0.1500000   0.2000000   0.0500000), wk =   0.0060000
        k(  322) = (   0.1500000   0.2000000   0.1000000), wk =   0.0060000
        k(  323) = (   0.1500000   0.2000000   0.1500000), wk =   0.0060000
        k(  324) = (   0.1500000   0.2000000   0.2000000), wk =   0.0060000
        k(  325) = (   0.1500000   0.2000000   0.2500000), wk =   0.0060000
        k(  326) = (   0.1500000   0.2000000   0.3000000), wk =   0.0060000
        k(  327) = (   0.1500000   0.2000000   0.3500000), wk =   0.0060000
        k(  328) = (   0.1500000   0.2000000   0.4000000), wk =   0.0060000
        k(  329) = (   0.1500000   0.2000000   0.4500000), wk =   0.0060000
        k(  330) = (   0.1500000   0.2000000  -0.5000000), wk =   0.0030000
        k(  331) = (   0.1500000   0.2500000   0.0000000), wk =   0.0030000
        k(  332) = (   0.1500000   0.2500000   0.0500000), wk =   0.0060000
        k(  333) = (   0.1500000   0.2500000   0.1000000), wk =   0.0060000
        k(  334) = (   0.1500000   0.2500000   0.1500000), wk =   0.0060000
        k(  335) = (   0.1500000   0.2500000   0.2000000), wk =   0.0060000
        k(  336) = (   0.1500000   0.2500000   0.2500000), wk =   0.0060000
        k(  337) = (   0.1500000   0.2500000   0.3000000), wk =   0.0060000
        k(  338) = (   0.1500000   0.2500000   0.3500000), wk =   0.0060000
        k(  339) = (   0.1500000   0.2500000   0.4000000), wk =   0.0060000
        k(  340) = (   0.1500000   0.2500000   0.4500000), wk =   0.0060000
        k(  341) = (   0.1500000   0.2500000  -0.5000000), wk =   0.0030000
        k(  342) = (   0.1500000   0.3000000   0.0000000), wk =   0.0030000
        k(  343) = (   0.1500000   0.3000000   0.0500000), wk =   0.0060000
        k(  344) = (   0.1500000   0.3000000   0.1000000), wk =   0.0060000
        k(  345) = (   0.1500000   0.3000000   0.1500000), wk =   0.0060000
        k(  346) = (   0.1500000   0.3000000   0.2000000), wk =   0.0060000
        k(  347) = (   0.1500000   0.3000000   0.2500000), wk =   0.0060000
        k(  348) = (   0.1500000   0.3000000   0.3000000), wk =   0.0060000
        k(  349) = (   0.1500000   0.3000000   0.3500000), wk =   0.0060000
        k(  350) = (   0.1500000   0.3000000   0.4000000), wk =   0.0060000
        k(  351) = (   0.1500000   0.3000000   0.4500000), wk =   0.0060000
        k(  352) = (   0.1500000   0.3000000  -0.5000000), wk =   0.0030000
        k(  353) = (   0.1500000   0.3500000   0.0000000), wk =   0.0030000
        k(  354) = (   0.1500000   0.3500000   0.0500000), wk =   0.0060000
        k(  355) = (   0.1500000   0.3500000   0.1000000), wk =   0.0060000
        k(  356) = (   0.1500000   0.3500000   0.1500000), wk =   0.0060000
        k(  357) = (   0.1500000   0.3500000   0.2000000), wk =   0.0060000
        k(  358) = (   0.1500000   0.3500000   0.2500000), wk =   0.0060000
        k(  359) = (   0.1500000   0.3500000   0.3000000), wk =   0.0060000
        k(  360) = (   0.1500000   0.3500000   0.3500000), wk =   0.0060000
        k(  361) = (   0.1500000   0.3500000   0.4000000), wk =   0.0060000
        k(  362) = (   0.1500000   0.3500000   0.4500000), wk =   0.0060000
        k(  363) = (   0.1500000   0.3500000  -0.5000000), wk =   0.0030000
        k(  364) = (   0.1500000   0.4000000   0.0000000), wk =   0.0030000
        k(  365) = (   0.1500000   0.4000000   0.0500000), wk =   0.0060000
        k(  366) = (   0.1500000   0.4000000   0.1000000), wk =   0.0060000
        k(  367) = (   0.1500000   0.4000000   0.1500000), wk =   0.0060000
        k(  368) = (   0.1500000   0.4000000   0.2000000), wk =   0.0060000
        k(  369) = (   0.1500000   0.4000000   0.2500000), wk =   0.0060000
        k(  370) = (   0.1500000   0.4000000   0.3000000), wk =   0.0060000
        k(  371) = (   0.1500000   0.4000000   0.3500000), wk =   0.0060000
        k(  372) = (   0.1500000   0.4000000   0.4000000), wk =   0.0060000
        k(  373) = (   0.1500000   0.4000000   0.4500000), wk =   0.0060000
        k(  374) = (   0.1500000   0.4000000  -0.5000000), wk =   0.0030000
        k(  375) = (   0.2000000   0.2000000   0.0000000), wk =   0.0015000
        k(  376) = (   0.2000000   0.2000000   0.0500000), wk =   0.0030000
        k(  377) = (   0.2000000   0.2000000   0.1000000), wk =   0.0030000
        k(  378) = (   0.2000000   0.2000000   0.1500000), wk =   0.0030000
        k(  379) = (   0.2000000   0.2000000   0.2000000), wk =   0.0030000
        k(  380) = (   0.2000000   0.2000000   0.2500000), wk =   0.0030000
        k(  381) = (   0.2000000   0.2000000   0.3000000), wk =   0.0030000
        k(  382) = (   0.2000000   0.2000000   0.3500000), wk =   0.0030000
        k(  383) = (   0.2000000   0.2000000   0.4000000), wk =   0.0030000
        k(  384) = (   0.2000000   0.2000000   0.4500000), wk =   0.0030000
        k(  385) = (   0.2000000   0.2000000  -0.5000000), wk =   0.0015000
        k(  386) = (   0.2000000   0.2500000   0.0000000), wk =   0.0030000
        k(  387) = (   0.2000000   0.2500000   0.0500000), wk =   0.0060000
        k(  388) = (   0.2000000   0.2500000   0.1000000), wk =   0.0060000
        k(  389) = (   0.2000000   0.2500000   0.1500000), wk =   0.0060000
        k(  390) = (   0.2000000   0.2500000   0.2000000), wk =   0.0060000
        k(  391) = (   0.2000000   0.2500000   0.2500000), wk =   0.0060000
        k(  392) = (   0.2000000   0.2500000   0.3000000), wk =   0.0060000
        k(  393) = (   0.2000000   0.2500000   0.3500000), wk =   0.0060000
        k(  394) = (   0.2000000   0.2500000   0.4000000), wk =   0.0060000
        k(  395) = (   0.2000000   0.2500000   0.4500000), wk =   0.0060000
        k(  396) = (   0.2000000   0.2500000  -0.5000000), wk =   0.0030000
        k(  397) = (   0.2000000   0.3000000   0.0000000), wk =   0.0030000
        k(  398) = (   0.2000000   0.3000000   0.0500000), wk =   0.0060000
        k(  399) = (   0.2000000   0.3000000   0.1000000), wk =   0.0060000
        k(  400) = (   0.2000000   0.3000000   0.1500000), wk =   0.0060000
        k(  401) = (   0.2000000   0.3000000   0.2000000), wk =   0.0060000
        k(  402) = (   0.2000000   0.3000000   0.2500000), wk =   0.0060000
        k(  403) = (   0.2000000   0.3000000   0.3000000), wk =   0.0060000
        k(  404) = (   0.2000000   0.3000000   0.3500000), wk =   0.0060000
        k(  405) = (   0.2000000   0.3000000   0.4000000), wk =   0.0060000
        k(  406) = (   0.2000000   0.3000000   0.4500000), wk =   0.0060000
        k(  407) = (   0.2000000   0.3000000  -0.5000000), wk =   0.0030000
        k(  408) = (   0.2000000   0.3500000   0.0000000), wk =   0.0030000
        k(  409) = (   0.2000000   0.3500000   0.0500000), wk =   0.0060000
        k(  410) = (   0.2000000   0.3500000   0.1000000), wk =   0.0060000
        k(  411) = (   0.2000000   0.3500000   0.1500000), wk =   0.0060000
        k(  412) = (   0.2000000   0.3500000   0.2000000), wk =   0.0060000
        k(  413) = (   0.2000000   0.3500000   0.2500000), wk =   0.0060000
[...]
     1.0000   1.0000   1.0000   1.0000   1.0000   1.0000   1.0000   1.0000
     1.0000   1.0000   1.0000   1.0000   1.0000   1.0000   1.0000   1.0000
     1.0000   1.0000

          k = 0.2500 0.4907 0.1844 (  9572 PWs)   bands (ev):

    -4.3638  -4.3117  -2.8730  -2.8220  -2.7891  -2.7396  -2.6920  -2.6761
    -2.6366  -2.6203  -1.2136  -0.8006   4.5011   4.9093   6.3622   7.6400
     8.1653   9.1010

     occupation numbers 
     1.0000   1.0000   1.0000   1.0000   1.0000   1.0000   1.0000   1.0000
     1.0000   1.0000   1.0000   1.0000   1.0000   1.0000   1.0000   1.0000
     1.0000   1.0000

          k = 0.2500 0.4907 0.2151 (  9583 PWs)   bands (ev):

    -4.3510  -4.3109  -2.8575  -2.8271  -2.7995  -2.7482  -2.6920  -2.6802
    -2.6343  -2.6187  -1.1722  -0.8524   4.4655   4.7913   6.4743   7.4690
     8.4375   9.1879

     occupation numbers 
     1.0000   1.0000   1.0000   1.0000   1.0000   1.0000   1.0000   1.0000
     1.0000   1.0000   1.0000   1.0000   1.0000   1.0000   1.0000   1.0000
     1.0000   1.0000

          k = 0.2500 0.4907 0.2459 (  9594 PWs)   bands (ev):

    -4.3391  -4.3119  -2.8430  -2.8295  -2.8063  -2.7603  -2.6921  -2.6849
    -2.6300  -2.6184  -1.1257  -0.9076   4.4570   4.6834   6.6091   7.2879
     8.6918   9.2174

     occupation numbers 
     1.0000   1.0000   1.0000   1.0000   1.0000   1.0000   1.0000   1.0000
     1.0000   1.0000   1.0000   1.0000   1.0000   1.0000   1.0000   1.0000
     1.0000   1.0000

          k = 0.2500 0.4907 0.2766 (  9597 PWs)   bands (ev):

    -4.3288  -4.3151  -2.8347  -2.8298  -2.8042  -2.7752  -2.6917  -2.6884
    -2.6256  -2.6195  -1.0747  -0.9641   4.4761   4.5920   6.7621   7.1060
     8.9096   9.1807

     occupation numbers 
     1.0000   1.0000   1.0000   1.0000   1.0000   1.0000   1.0000   1.0000
     1.0000   1.0000   1.0000   1.0000   1.0000   1.0000   1.0000   1.0000
     1.0000   1.0000

          k = 0.2500 0.4907-0.3073 (  9608 PWs)   bands (ev):

    -4.3208  -4.3208  -2.8315  -2.8315  -2.7912  -2.7912  -2.6906  -2.6906
    -2.6219  -2.6219  -1.0204  -1.0204   4.5218   4.5218   6.9292   6.9292
     9.0763   9.0763

     occupation numbers 
     1.0000   1.0000   1.0000   1.0000   1.0000   1.0000   1.0000   1.0000
     1.0000   1.0000   1.0000   1.0000   1.0000   1.0000   1.0000   1.0000
     1.0000   1.0000

          k = 0.2500 0.5485 0.0000 (  9552 PWs)   bands (ev):

    -4.3894  -4.3285  -2.9276  -2.7754  -2.7229  -2.7153  -2.7079  -2.6919
    -2.6467  -2.6084  -1.1120  -0.7241   4.8399   5.4234   5.9002   7.1957
     8.0723   8.1949

     occupation numbers 
     1.0000   1.0000   1.0000   1.0000   1.0000   1.0000   1.0000   1.0000
     1.0000   1.0000   1.0000   1.0000   1.0000   1.0000   1.0000   1.0000
     1.0000   1.0000

          k = 0.2500 0.5485 0.0307 (  9552 PWs)   bands (ev):

    -4.3880  -4.3277  -2.9260  -2.7778  -2.7268  -2.7144  -2.7098  -2.6865
    -2.6464  -2.6099  -1.1098  -0.7264   4.8215   5.3975   5.8980   7.2442
     8.0844   8.1999

     occupation numbers 
     1.0000   1.0000   1.0000   1.0000   1.0000   1.0000   1.0000   1.0000
     1.0000   1.0000   1.0000   1.0000   1.0000   1.0000   1.0000   1.0000
     1.0000   1.0000

          k = 0.2500 0.5485 0.0615 (  9559 PWs)   bands (ev):

    -4.3836  -4.3257  -2.9214  -2.7840  -2.7375  -2.7156  -2.7064  -2.6775
    -2.6454  -2.6144  -1.1035  -0.7332   4.7697   5.3241   5.8995   7.3795
     8.0558   8.2733

     occupation numbers 
     1.0000   1.0000   1.0000   1.0000   1.0000   1.0000   1.0000   1.0000
     1.0000   1.0000   1.0000   1.0000   1.0000   1.0000   1.0000   1.0000
     1.0000   1.0000

          k = 0.2500 0.5485 0.0922 (  9569 PWs)   bands (ev):

    -4.3767  -4.3226  -2.9137  -2.7922  -2.7510  -2.7177  -2.7003  -2.6693
    -2.6436  -2.6212  -1.0930  -0.7446   4.6945   5.2140   5.9198   7.5780
     7.9667   8.4207

     occupation numbers 
     1.0000   1.0000   1.0000   1.0000   1.0000   1.0000   1.0000   1.0000
     1.0000   1.0000   1.0000   1.0000   1.0000   1.0000   1.0000   1.0000
     1.0000   1.0000

          k = 0.2500 0.5485 0.1229 (  9567 PWs)   bands (ev):

    -4.3678  -4.3188  -2.9033  -2.8009  -2.7653  -2.7206  -2.6942  -2.6631
    -2.6412  -2.6291  -1.0784  -0.7604   4.6094   5.0816   5.9680   7.7874
     7.8700   8.5999

     occupation numbers 
     1.0000   1.0000   1.0000   1.0000   1.0000   1.0000   1.0000   1.0000
     1.0000   1.0000   1.0000   1.0000   1.0000   1.0000   1.0000   1.0000
     1.0000   1.0000

          k = 0.2500 0.5485 0.1537 (  9577 PWs)   bands (ev):

    -4.3576  -4.3148  -2.8904  -2.8092  -2.7794  -2.7253  -2.6891  -2.6599
    -2.6404  -2.6341  -1.0600  -0.7803   4.5274   4.9409   6.0450   7.6749
     8.0894   8.7842

     occupation numbers 
     1.0000   1.0000   1.0000   1.0000   1.0000   1.0000   1.0000   1.0000
     1.0000   1.0000   1.0000   1.0000   1.0000   1.0000   1.0000   1.0000
     1.0000   1.0000

          k = 0.2500 0.5485 0.1844 (  9585 PWs)   bands (ev):

    -4.3468  -4.3113  -2.8754  -2.8161  -2.7926  -2.7326  -2.6852  -2.6615
    -2.6415  -2.6328  -1.0379  -0.8040   4.4591   4.8035   6.1483   7.5039
     8.3517   8.9514

     occupation numbers 
     1.0000   1.0000   1.0000   1.0000   1.0000   1.0000   1.0000   1.0000
     1.0000   1.0000   1.0000   1.0000   1.0000   1.0000   1.0000   1.0000
     1.0000   1.0000

          k = 0.2500 0.5485 0.2151 (  9581 PWs)   bands (ev):

    -4.3362  -4.3089  -2.8591  -2.8207  -2.8041  -2.7435  -2.6825  -2.6665
    -2.6395  -2.6307  -1.0125  -0.8309   4.4114   4.6779   6.2746   7.3201
     8.6021   9.0823

     occupation numbers 
     1.0000   1.0000   1.0000   1.0000   1.0000   1.0000   1.0000   1.0000
     1.0000   1.0000   1.0000   1.0000   1.0000   1.0000   1.0000   1.0000
     1.0000   1.0000

          k = 0.2500 0.5485 0.2459 (  9591 PWs)   bands (ev):

    -4.3266  -4.3081  -2.8435  -2.8219  -2.8129  -2.7579  -2.6805  -2.6713
    -2.6363  -2.6296  -0.9845  -0.8603   4.3886   4.5704   6.4205   7.1309
     8.8236   9.1608

     occupation numbers 
     1.0000   1.0000   1.0000   1.0000   1.0000   1.0000   1.0000   1.0000
     1.0000   1.0000   1.0000   1.0000   1.0000   1.0000   1.0000   1.0000
     1.0000   1.0000

          k = 0.2500 0.5485 0.2766 (  9611 PWs)   bands (ev):

    -4.3187  -4.3093  -2.8339  -2.8241  -2.8092  -2.7749  -2.6789  -2.6747
    -2.6333  -2.6297  -0.9544  -0.8913   4.3931   4.4853   6.5827   6.9418
     9.0010   9.1753

     occupation numbers 
     1.0000   1.0000   1.0000   1.0000   1.0000   1.0000   1.0000   1.0000
     1.0000   1.0000   1.0000   1.0000   1.0000   1.0000   1.0000   1.0000
     1.0000   1.0000

          k = 0.2500 0.5485-0.3073 (  9606 PWs)   bands (ev):

    -4.3129  -4.3129  -2.8291  -2.8291  -2.7930  -2.7930  -2.6771  -2.6771
    -2.6309  -2.6309  -0.9230  -0.9230   4.4256   4.4256   6.7577   6.7577
     9.1212   9.1212

     occupation numbers 
     1.0000   1.0000   1.0000   1.0000   1.0000   1.0000   1.0000   1.0000
     1.0000   1.0000   1.0000   1.0000   1.0000   1.0000   1.0000   1.0000
     1.0000   1.0000

          k = 0.3000 0.5196 0.0000 (  9546 PWs)   bands (ev):

    -4.3804  -4.3322  -2.9307  -2.7556  -2.7246  -2.7217  -2.7079  -2.6953
    -2.6505  -2.6116  -1.0910  -0.7103   5.0919   5.2173   5.8152   7.2406
     8.0430   8.0653

     occupation numbers 
     1.0000   1.0000   1.0000   1.0000   1.0000   1.0000   1.0000   1.0000
     1.0000   1.0000   1.0000   1.0000   1.0000   1.0000   1.0000   1.0000
     1.0000   1.0000

          k = 0.3000 0.5196 0.0307 (  9549 PWs)   bands (ev):

    -4.3790  -4.3315  -2.9291  -2.7593  -2.7292  -2.7214  -2.7049  -2.6924
    -2.6499  -2.6132  -1.0888  -0.7125   5.0634   5.2090   5.8051   7.2886
     8.0216   8.1043

     occupation numbers 
     1.0000   1.0000   1.0000   1.0000   1.0000   1.0000   1.0000   1.0000
     1.0000   1.0000   1.0000   1.0000   1.0000   1.0000   1.0000   1.0000
     1.0000   1.0000

          k = 0.3000 0.5196 0.0615 (  9554 PWs)   bands (ev):

    -4.3749  -4.3292  -2.9244  -2.7681  -2.7393  -2.7215  -2.6974  -2.6872
    -2.6482  -2.6180  -1.0824  -0.7192   4.9868   5.1794   5.7867   7.4223
     7.9593   8.2130

     occupation numbers 
     1.0000   1.0000   1.0000   1.0000   1.0000   1.0000   1.0000   1.0000
     1.0000   1.0000   1.0000   1.0000   1.0000   1.0000   1.0000   1.0000
     1.0000   1.0000

          k = 0.3000 0.5196 0.0922 (  9561 PWs)   bands (ev):

    -4.3685  -4.3257  -2.9166  -2.7788  -2.7516  -2.7224  -2.6883  -2.6827
    -2.6453  -2.6253  -1.0719  -0.7302   4.8824   5.1189   5.7855   7.6137
     7.8657   8.3720

     occupation numbers 
     1.0000   1.0000   1.0000   1.0000   1.0000   1.0000   1.0000   1.0000
     1.0000   1.0000   1.0000   1.0000   1.0000   1.0000   1.0000   1.0000
     1.0000   1.0000

          k = 0.3000 0.5196 0.1229 (  9568 PWs)   bands (ev):

    -4.3601  -4.3215  -2.9060  -2.7896  -2.7646  -2.7245  -2.6800  -2.6795
    -2.6417  -2.6342  -1.0573  -0.7455   4.7701   5.0269   5.8193   7.6937
     7.8920   8.5577

     occupation numbers 
     1.0000   1.0000   1.0000   1.0000   1.0000   1.0000   1.0000   1.0000
     1.0000   1.0000   1.0000   1.0000   1.0000   1.0000   1.0000   1.0000
     1.0000   1.0000

          k = 0.3000 0.5196 0.1537 (  9578 PWs)   bands (ev):

    -4.3506  -4.3169  -2.8927  -2.7998  -2.7773  -2.7283  -2.6788  -2.6727
    -2.6426  -2.6380  -1.0388  -0.7648   4.6647   4.9154   5.8900   7.5489
     8.1375   8.7479

     occupation numbers 
     1.0000   1.0000   1.0000   1.0000   1.0000   1.0000   1.0000   1.0000
     1.0000   1.0000   1.0000   1.0000   1.0000   1.0000   1.0000   1.0000
     1.0000   1.0000

          k = 0.3000 0.5196 0.1844 (  9594 PWs)   bands (ev):

    -4.3406  -4.3127  -2.8772  -2.8085  -2.7891  -2.7350  -2.6786  -2.6706
    -2.6466  -2.6347  -1.0168  -0.7878   4.5763   4.7993   5.9921   7.3740
     8.3965   8.9221

     occupation numbers 
     1.0000   1.0000   1.0000   1.0000   1.0000   1.0000   1.0000   1.0000
     1.0000   1.0000   1.0000   1.0000   1.0000   1.0000   1.0000   1.0000
     1.0000   1.0000

          k = 0.3000 0.5196 0.2151 (  9606 PWs)   bands (ev):

    -4.3309  -4.3095  -2.8599  -2.8154  -2.7994  -2.7455  -2.6790  -2.6736
    -2.6445  -2.6325  -0.9916  -0.8139   4.5111   4.6908   6.1197   7.1863
     8.6418   9.0616

     occupation numbers 
     1.0000   1.0000   1.0000   1.0000   1.0000   1.0000   1.0000   1.0000
     1.0000   1.0000   1.0000   1.0000   1.0000   1.0000   1.0000   1.0000
     1.0000   1.0000

          k = 0.3000 0.5196 0.2459 (  9618 PWs)   bands (ev):

    -4.3223  -4.3078  -2.8416  -2.8200  -2.8071  -2.7600  -2.6795  -2.6771
    -2.6403  -2.6315  -0.9639  -0.8424   4.4726   4.5982   6.2682   6.9931
     8.8562   9.1503

     occupation numbers 
     1.0000   1.0000   1.0000   1.0000   1.0000   1.0000   1.0000   1.0000
     1.0000   1.0000   1.0000   1.0000   1.0000   1.0000   1.0000   1.0000
     1.0000   1.0000

          k = 0.3000 0.5196 0.2766 (  9619 PWs)   bands (ev):

    -4.3154  -4.3080  -2.8262  -2.8223  -2.8087  -2.7773  -2.6800  -2.6792
    -2.6364  -2.6318  -0.9343  -0.8726   4.4625   4.5270   6.4336   6.8001
     9.0245   9.1763

     occupation numbers 
     1.0000   1.0000   1.0000   1.0000   1.0000   1.0000   1.0000   1.0000
     1.0000   1.0000   1.0000   1.0000   1.0000   1.0000   1.0000   1.0000
     1.0000   1.0000

          k = 0.3000 0.5196-0.3073 (  9624 PWs)   bands (ev):

    -4.3106  -4.3106  -2.8226  -2.8226  -2.7957  -2.7957  -2.6800  -2.6800
    -2.6334  -2.6334  -0.9035  -0.9035   4.4810   4.4810   6.6122   6.6122
     9.1339   9.1339

     occupation numbers 
     1.0000   1.0000   1.0000   1.0000   1.0000   1.0000   1.0000   1.0000
     1.0000   1.0000   1.0000   1.0000   1.0000   1.0000   1.0000   1.0000
     1.0000   1.0000

          k = 0.3000 0.5774 0.0000 (  9538 PWs)   bands (ev):

    -4.3636  -4.3406  -2.9332  -2.7462  -2.7220  -2.7177  -2.7065  -2.6983
    -2.6576  -2.6129  -0.9469  -0.7947   5.1058   5.3845   5.5029   7.4798
     7.8318   7.9581

     occupation numbers 
     1.0000   1.0000   1.0000   1.0000   1.0000   1.0000   1.0000   1.0000
     1.0000   1.0000   1.0000   1.0000   1.0000   1.0000   1.0000   1.0000
     1.0000   1.0000

          k = 0.3000 0.5774 0.0307 (  9548 PWs)   bands (ev):

    -4.3624  -4.3397  -2.9316  -2.7501  -2.7284  -2.7177  -2.7031  -2.6928
    -2.6576  -2.6146  -0.9459  -0.7953   5.0867   5.3546   5.5049   7.5257
     7.8669   7.9425

     occupation numbers 
     1.0000   1.0000   1.0000   1.0000   1.0000   1.0000   1.0000   1.0000
     1.0000   1.0000   1.0000   1.0000   1.0000   1.0000   1.0000   1.0000
     1.0000   1.0000

          k = 0.3000 0.5774 0.0615 (  9557 PWs)   bands (ev):

    -4.3588  -4.3370  -2.9268  -2.7592  -2.7405  -2.7182  -2.6956  -2.6830
    -2.6578  -2.6195  -0.9426  -0.7972   5.0289   5.2723   5.5199   7.6541
     7.8570   8.0038

     occupation numbers 
     1.0000   1.0000   1.0000   1.0000   1.0000   1.0000   1.0000   1.0000
     1.0000   1.0000   1.0000   1.0000   1.0000   1.0000   1.0000   1.0000
     1.0000   1.0000

          k = 0.3000 0.5774 0.0922 (  9556 PWs)   bands (ev):

    -4.3532  -4.3328  -2.9189  -2.7702  -2.7539  -2.7193  -2.6873  -2.6733
    -2.6578  -2.6271  -0.9374  -0.8005   4.9383   5.1550   5.5604   7.7566
     7.8436   8.1716

     occupation numbers 
     1.0000   1.0000   1.0000   1.0000   1.0000   1.0000   1.0000   1.0000
     1.0000   1.0000   1.0000   1.0000   1.0000   1.0000   1.0000   1.0000
     1.0000   1.0000

          k = 0.3000 0.5774 0.1229 (  9566 PWs)   bands (ev):

    -4.3461  -4.3276  -2.9081  -2.7814  -2.7673  -2.7216  -2.6799  -2.6647
    -2.6574  -2.6366  -0.9302  -0.8051   4.8305   5.0212   5.6297   7.6203
     8.0704   8.3739

     occupation numbers 
     1.0000   1.0000   1.0000   1.0000   1.0000   1.0000   1.0000   1.0000
     1.0000   1.0000   1.0000   1.0000   1.0000   1.0000   1.0000   1.0000
     1.0000   1.0000

          k = 0.3000 0.5774 0.1537 (  9569 PWs)   bands (ev):

    -4.3380  -4.3219  -2.8946  -2.7920  -2.7801  -2.7258  -2.6746  -2.6583
    -2.6557  -2.6460  -0.9213  -0.8112   4.7219   4.8859   5.7253   7.4580
     8.3130   8.5860

     occupation numbers 
     1.0000   1.0000   1.0000   1.0000   1.0000   1.0000   1.0000   1.0000
     1.0000   1.0000   1.0000   1.0000   1.0000   1.0000   1.0000   1.0000
     1.0000   1.0000

          k = 0.3000 0.5774 0.1844 (  9596 PWs)   bands (ev):

    -4.3296  -4.3163  -2.8787  -2.8014  -2.7918  -2.7331  -2.6721  -2.6597
    -2.6525  -2.6482  -0.9109  -0.8187   4.6248   4.7601   5.8441   7.2772
     8.5528   8.7876

     occupation numbers 
     1.0000   1.0000   1.0000   1.0000   1.0000   1.0000   1.0000   1.0000
     1.0000   1.0000   1.0000   1.0000   1.0000   1.0000   1.0000   1.0000
     1.0000   1.0000

          k = 0.3000 0.5774 0.2151 (  9608 PWs)   bands (ev):

    -4.3218  -4.3115  -2.8608  -2.8089  -2.8019  -2.7446  -2.6716  -2.6659
    -2.6485  -2.6448  -0.8994  -0.8277   4.5471   4.6514   5.9834   7.0849
     8.7721   8.9600

     occupation numbers 
     1.0000   1.0000   1.0000   1.0000   1.0000   1.0000   1.0000   1.0000
     1.0000   1.0000   1.0000   1.0000   1.0000   1.0000   1.0000   1.0000
     1.0000   1.0000

          k = 0.3000 0.5774 0.2459 (  9615 PWs)   bands (ev):

    -4.3151  -4.3081  -2.8416  -2.8139  -2.8098  -2.7601  -2.6720  -2.6702
    -2.6449  -2.6421  -0.8870  -0.8380   4.4940   4.5650   6.1405   6.8873
     8.9548   9.0866

     occupation numbers 
     1.0000   1.0000   1.0000   1.0000   1.0000   1.0000   1.0000   1.0000
     1.0000   1.0000   1.0000   1.0000   1.0000   1.0000   1.0000   1.0000
     1.0000   1.0000

          k = 0.3000 0.5774 0.2766 (  9613 PWs)   bands (ev):

    -4.3101  -4.3065  -2.8235  -2.8154  -2.8142  -2.7785  -2.6726  -2.6722
    -2.6422  -2.6407  -0.8743  -0.8494   4.4685   4.5044   6.3126   6.6897
     9.0859   9.1541

     occupation numbers 
     1.0000   1.0000   1.0000   1.0000   1.0000   1.0000   1.0000   1.0000
     1.0000   1.0000   1.0000   1.0000   1.0000   1.0000   1.0000   1.0000
     1.0000   1.0000

          k = 0.3000 0.5774-0.3073 (  9626 PWs)   bands (ev):

    -4.3072  -4.3072  -2.8186  -2.8186  -2.7984  -2.7984  -2.6728  -2.6728
    -2.6408  -2.6408  -0.8617  -0.8617   4.4719   4.4719   6.4969   6.4969
     9.1543   9.1543

     occupation numbers 
     1.0000   1.0000   1.0000   1.0000   1.0000   1.0000   1.0000   1.0000
     1.0000   1.0000   1.0000   1.0000   1.0000   1.0000   1.0000   1.0000
     1.0000   1.0000

     highest occupied level (ev):    10.6179

!    total energy              =    -347.51871394 Ry
     estimated scf accuracy    <       0.00000003 Ry

     The total energy is the sum of the following terms:
     one-electron contribution =    -105.66942355 Ry
     hartree contribution      =      87.58554521 Ry
     xc contribution           =     -96.27800871 Ry
     ewald contribution        =    -233.15682690 Ry

     convergence has been achieved in  24 iterations

     Writing output data file ../tmp/GaN_exc1.save/
 
     init_run     :      6.83s CPU      7.06s WALL (       1 calls)
     electrons    :    286.39s CPU    290.69s WALL (       1 calls)

     Called by init_run:
     wfcinit      :      6.24s CPU      6.42s WALL (       1 calls)
     wfcinit:atom :      0.15s CPU      0.16s WALL (     484 calls)
     wfcinit:wfcr :      5.12s CPU      5.22s WALL (     484 calls)
     potinit      :      0.10s CPU      0.10s WALL (       1 calls)
     hinit0       :      0.24s CPU      0.28s WALL (       1 calls)

     Called by electrons:
     c_bands      :    251.09s CPU    254.65s WALL (      24 calls)
     sum_band     :     34.90s CPU     35.60s WALL (      24 calls)
     v_of_rho     :      0.30s CPU      0.32s WALL (      25 calls)
     v_h          :      0.01s CPU      0.01s WALL (      25 calls)
     v_xc         :      0.29s CPU      0.30s WALL (      25 calls)
     mix_rho      :      0.10s CPU      0.11s WALL (      24 calls)

     Called by c_bands:
     init_us_2    :     11.37s CPU     11.70s WALL (   23716 calls)
     cegterg      :    208.95s CPU    212.08s WALL (   11616 calls)

     Called by sum_band:
     sum_band:wei :      0.00s CPU      0.00s WALL (      24 calls)
     sum_band:loo :     34.84s CPU     35.54s WALL (      24 calls)
     sum_band:buf :      0.94s CPU      0.97s WALL (   11616 calls)
     sum_band:ini :      5.51s CPU      5.64s WALL (   11616 calls)

     Called by *egterg:
     cdiaghg      :     23.72s CPU     23.93s WALL (   34643 calls)
     cegterg:over :     12.26s CPU     12.40s WALL (   23027 calls)
     cegterg:upda :      6.24s CPU      6.31s WALL (   23027 calls)
     cegterg:last :      8.79s CPU      8.86s WALL (   18834 calls)
     cdiaghg:chol :      2.47s CPU      2.50s WALL (   34643 calls)
     cdiaghg:inve :      0.57s CPU      0.58s WALL (   34643 calls)
     cdiaghg:para :      2.57s CPU      2.57s WALL (   69286 calls)
     h_psi        :    154.21s CPU    156.95s WALL (   35127 calls)
     g_psi        :      1.57s CPU      1.58s WALL (   23027 calls)

     Called by h_psi:
     h_psi:calbec :     11.20s CPU     11.40s WALL (   35127 calls)
     vloc_psi     :    129.16s CPU    131.54s WALL (   35127 calls)
     add_vuspsi   :     11.60s CPU     11.78s WALL (   35127 calls)

     General routines
     calbec       :     11.09s CPU     11.32s WALL (   35127 calls)
     fft          :      0.11s CPU      0.15s WALL (     250 calls)
     ffts         :      0.01s CPU      0.01s WALL (      24 calls)
     fftw         :    126.74s CPU    129.03s WALL ( 1226394 calls)
 
     Parallel routines
 
     PWSCF        :   4m54.11s CPU   5m 0.49s WALL

 
   This run was terminated on:  18:34:20  27Mar2023            

=------------------------------------------------------------------------------=
   JOB DONE.
=------------------------------------------------------------------------------=
