
     Program PWSCF v.6.8 starts on 27Mar2023 at 18:27:20 

     This program is part of the open-source Quantum ESPRESSO suite
     for quantum simulation of materials; please cite
         "P. Giannozzi et al., J. Phys.:Condens. Matter 21 395502 (2009);
         "P. Giannozzi et al., J. Phys.:Condens. Matter 29 465901 (2017);
         "P. Giannozzi et al., J. Chem. Phys. 152 154105 (2020);
          URL http://www.quantum-espresso.org", 
     in publications or presentations arising from this work. More details at
     http://www.quantum-espresso.org/quote

     Parallel version (MPI & OpenMP), running on       6 processor cores
     Number of MPI processes:                 6
     Threads/MPI process:                     1

     MPI processes distributed on     1 nodes
     R & G space division:  proc/nbgrp/npool/nimage =       6
     9032 MiB available memory on the printing compute node when the environment starts
 
     Waiting for input...
     Reading input from standard input
Warning: card &CELL ignored
Warning: card / ignored

     Current dimensions of program PWSCF are:
     Max number of different atomic species (ntypx) = 10
     Max number of k-points (npk) =  40000
     Max angular momentum in pseudopotentials (lmaxx) =  4

     Subspace diagonalization in iterative solution of the eigenvalue problem:
     one sub-group per band group will be used
     scalapack distributed-memory algorithm (size of sub-group:  2*  2 procs)

 
     Parallelization info
     --------------------
     sticks:   dense  smooth     PW     G-vecs:    dense   smooth      PW
     Min         167     167     48                 6967     6967    1077
     Max         168     168     50                 6974     6974    1080
     Sum        1003    1003    295                41817    41817    6471
 
     Using Slab Decomposition
 


     bravais-lattice index     =            4
     lattice parameter (alat)  =       6.0282  a.u.
     unit-cell volume          =     308.6570 (a.u.)^3
     number of atoms/cell      =            4
     number of atomic types    =            2
     number of electrons       =        36.00
     number of Kohn-Sham states=           18
     kinetic-energy cutoff     =     100.0000  Ry
     charge density cutoff     =     400.0000  Ry
     scf convergence threshold =      1.0E-06
     mixing beta               =       0.7000
     number of iterations used =            8  plain     mixing
     Exchange-correlation= PBE
                           (   1   4   3   4   0   0   0)

     celldm(1)=   6.028226  celldm(2)=   0.000000  celldm(3)=   1.626960
     celldm(4)=   0.000000  celldm(5)=   0.000000  celldm(6)=   0.000000

     crystal axes: (cart. coord. in units of alat)
               a(1) = (   1.000000   0.000000   0.000000 )  
               a(2) = (  -0.500000   0.866025   0.000000 )  
               a(3) = (   0.000000   0.000000   1.626960 )  

     reciprocal axes: (cart. coord. in units 2 pi/alat)
               b(1) = (  1.000000  0.577350  0.000000 )  
               b(2) = (  0.000000  1.154701  0.000000 )  
               b(3) = (  0.000000  0.000000  0.614643 )  


     PseudoPot. # 1 for Ga read from file:
     ../pseudo/Ga_ONCV_PBE_sr.upf
     MD5 check sum: e3654b1fbeb096be7359f640ef9d98d7
     Pseudo is Norm-conserving + core correction, Zval = 13.0
     Generated using ONCVPSP code by D. R. Hamann
     Using radial grid of 1902 points,  6 beta functions with: 
                l(1) =   0
                l(2) =   0
                l(3) =   1
                l(4) =   1
                l(5) =   2
                l(6) =   2

     PseudoPot. # 2 for N  read from file:
     ../pseudo/N_ONCV_PBE_sr.upf
     MD5 check sum: 18c6af81dac9c5a2d6d52ed11cf7bfee
     Pseudo is Norm-conserving + core correction, Zval =  5.0
     Generated using ONCVPSP code by D. R. Hamann
     Using radial grid of 1058 points,  4 beta functions with: 
                l(1) =   0
                l(2) =   0
                l(3) =   1
                l(4) =   1

     atomic species   valence    mass     pseudopotential
        Ga            13.00    69.72300     Ga( 1.00)
        N              5.00    14.00700     N ( 1.00)

     12 Sym. Ops. (no inversion) found ( 6 have fractional translation)


                                    s                        frac. trans.

      isym =  1     identity                                     

 cryst.   s( 1) = (     1          0          0      )
                  (     0          1          0      )
                  (     0          0          1      )

 cart.    s( 1) = (  1.0000000  0.0000000  0.0000000 )
                  (  0.0000000  1.0000000  0.0000000 )
                  (  0.0000000  0.0000000  1.0000000 )


      isym =  2     180 deg rotation - cart. axis [0,0,1]        

 cryst.   s( 2) = (    -1          0          0      )    f =(  0.0000000 )
                  (     0         -1          0      )       (  0.0000000 )
                  (     0          0          1      )       ( -0.5000000 )

 cart.    s( 2) = ( -1.0000000  0.0000000  0.0000000 )    f =(  0.0000000 )
                  (  0.0000000 -1.0000000  0.0000000 )       (  0.0000000 )
                  (  0.0000000  0.0000000  1.0000000 )       ( -0.8134800 )


      isym =  3      60 deg rotation - cryst. axis [0,0,1]       

 cryst.   s( 3) = (     1          1          0      )    f =(  0.0000000 )
                  (    -1          0          0      )       (  0.0000000 )
                  (     0          0          1      )       ( -0.5000000 )

 cart.    s( 3) = (  0.5000000 -0.8660254  0.0000000 )    f =(  0.0000000 )
                  (  0.8660254  0.5000000  0.0000000 )       (  0.0000000 )
                  (  0.0000000  0.0000000  1.0000000 )       ( -0.8134800 )


      isym =  4      60 deg rotation - cryst. axis [0,0,-1]      

 cryst.   s( 4) = (     0         -1          0      )    f =(  0.0000000 )
                  (     1          1          0      )       (  0.0000000 )
                  (     0          0          1      )       ( -0.5000000 )

 cart.    s( 4) = (  0.5000000  0.8660254  0.0000000 )    f =(  0.0000000 )
                  ( -0.8660254  0.5000000  0.0000000 )       (  0.0000000 )
                  (  0.0000000  0.0000000  1.0000000 )       ( -0.8134800 )


      isym =  5     120 deg rotation - cryst. axis [0,0,1]       

 cryst.   s( 5) = (     0          1          0      )
                  (    -1         -1          0      )
                  (     0          0          1      )

 cart.    s( 5) = ( -0.5000000 -0.8660254  0.0000000 )
                  (  0.8660254 -0.5000000  0.0000000 )
                  (  0.0000000  0.0000000  1.0000000 )


      isym =  6     120 deg rotation - cryst. axis [0,0,-1]      

 cryst.   s( 6) = (    -1         -1          0      )
                  (     1          0          0      )
                  (     0          0          1      )

 cart.    s( 6) = ( -0.5000000  0.8660254  0.0000000 )
                  ( -0.8660254 -0.5000000  0.0000000 )
                  (  0.0000000  0.0000000  1.0000000 )


      isym =  7     inv. 180 deg rotation - cart. axis [0,1,0]   

 cryst.   s( 7) = (     1          0          0      )    f =(  0.0000000 )
                  (    -1         -1          0      )       (  0.0000000 )
                  (     0          0          1      )       ( -0.5000000 )

 cart.    s( 7) = (  1.0000000  0.0000000  0.0000000 )    f =(  0.0000000 )
                  (  0.0000000 -1.0000000  0.0000000 )       (  0.0000000 )
                  (  0.0000000  0.0000000  1.0000000 )       ( -0.8134800 )


      isym =  8     inv. 180 deg rotation - cart. axis [1,0,0]   

 cryst.   s( 8) = (    -1          0          0      )
                  (     1          1          0      )
                  (     0          0          1      )

 cart.    s( 8) = ( -1.0000000  0.0000000  0.0000000 )
                  (  0.0000000  1.0000000  0.0000000 )
                  (  0.0000000  0.0000000  1.0000000 )


      isym =  9     inv. 180 deg rotation - cryst. axis [1,-1,0] 

 cryst.   s( 9) = (     0          1          0      )    f =(  0.0000000 )
                  (     1          0          0      )       (  0.0000000 )
                  (     0          0          1      )       ( -0.5000000 )

 cart.    s( 9) = ( -0.5000000  0.8660254  0.0000000 )    f =(  0.0000000 )
                  (  0.8660254  0.5000000  0.0000000 )       (  0.0000000 )
                  (  0.0000000  0.0000000  1.0000000 )       ( -0.8134800 )


      isym = 10     inv. 180 deg rotation - cryst. axis [2,1,0]  

 cryst.   s(10) = (    -1         -1          0      )    f =(  0.0000000 )
                  (     0          1          0      )       (  0.0000000 )
                  (     0          0          1      )       ( -0.5000000 )

 cart.    s(10) = ( -0.5000000 -0.8660254  0.0000000 )    f =(  0.0000000 )
                  ( -0.8660254  0.5000000  0.0000000 )       (  0.0000000 )
                  (  0.0000000  0.0000000  1.0000000 )       ( -0.8134800 )


      isym = 11     inv. 180 deg rotation - cryst. axis [0,1,0]  

 cryst.   s(11) = (     1          1          0      )
                  (     0         -1          0      )
                  (     0          0          1      )

 cart.    s(11) = (  0.5000000  0.8660254  0.0000000 )
                  (  0.8660254 -0.5000000  0.0000000 )
                  (  0.0000000  0.0000000  1.0000000 )


      isym = 12     inv. 180 deg rotation - cryst. axis [1,1,0]  

 cryst.   s(12) = (     0         -1          0      )
                  (    -1          0          0      )
                  (     0          0          1      )

 cart.    s(12) = (  0.5000000 -0.8660254  0.0000000 )
                  ( -0.8660254 -0.5000000  0.0000000 )
                  (  0.0000000  0.0000000  1.0000000 )


     point group C_6v (6mm) 
     there are  6 classes
     the character table:

       E     2C6   2C3   C2    3s_v  3s_d 
A_1    1.00  1.00  1.00  1.00  1.00  1.00
A_2    1.00  1.00  1.00  1.00 -1.00 -1.00
B_1    1.00 -1.00  1.00 -1.00  1.00 -1.00
B_2    1.00 -1.00  1.00 -1.00 -1.00  1.00
E_1    2.00  1.00 -1.00 -2.00  0.00  0.00
E_2    2.00 -1.00 -1.00  2.00  0.00  0.00

     the symmetry operations in each class and the name of the first element:

     E        1
          identity                                               
     2C6      3    4
           60 deg rotation - cryst. axis [0,0,1]                 
     2C3      5    6
          120 deg rotation - cryst. axis [0,0,1]                 
     C2       2
          180 deg rotation - cart. axis [0,0,1]                  
     3s_v     8   12   11
          inv. 180 deg rotation - cart. axis [1,0,0]             
     3s_d     7    9   10
          inv. 180 deg rotation - cart. axis [0,1,0]             

   Cartesian axes

     site n.     atom                  positions (alat units)
         1           Ga  tau(   1) = (   0.5000000   0.2886751   0.8119892  )
         2           Ga  tau(   2) = (   0.0000000   0.5773503   1.6254692  )
         3           N   tau(   3) = (   0.5000000   0.2886751   1.4250808  )
         4           N   tau(   4) = (   0.0000000   0.5773503   0.6116008  )

   Crystallographic axes

     site n.     atom                  positions (cryst. coord.)
         1           Ga  tau(   1) = (  0.6666667  0.3333333  0.4990837  )
         2           Ga  tau(   2) = (  0.3333333  0.6666667  0.9990837  )
         3           N   tau(   3) = (  0.6666667  0.3333333  0.8759163  )
         4           N   tau(   4) = (  0.3333333  0.6666667  0.3759163  )

     number of k points=   484
                       cart. coord. in units 2pi/alat
        k(    1) = (   0.0000000   0.0000000   0.0000000), wk =   0.0002500
        k(    2) = (   0.0000000   0.0000000   0.0307322), wk =   0.0005000
        k(    3) = (   0.0000000   0.0000000   0.0614643), wk =   0.0005000
        k(    4) = (   0.0000000   0.0000000   0.0921965), wk =   0.0005000
        k(    5) = (   0.0000000   0.0000000   0.1229287), wk =   0.0005000
        k(    6) = (   0.0000000   0.0000000   0.1536608), wk =   0.0005000
        k(    7) = (   0.0000000   0.0000000   0.1843930), wk =   0.0005000
        k(    8) = (   0.0000000   0.0000000   0.2151251), wk =   0.0005000
        k(    9) = (   0.0000000   0.0000000   0.2458573), wk =   0.0005000
        k(   10) = (   0.0000000   0.0000000   0.2765895), wk =   0.0005000
        k(   11) = (   0.0000000   0.0000000  -0.3073216), wk =   0.0002500
        k(   12) = (   0.0000000   0.0577350   0.0000000), wk =   0.0015000
        k(   13) = (   0.0000000   0.0577350   0.0307322), wk =   0.0030000
        k(   14) = (   0.0000000   0.0577350   0.0614643), wk =   0.0030000
        k(   15) = (   0.0000000   0.0577350   0.0921965), wk =   0.0030000
        k(   16) = (   0.0000000   0.0577350   0.1229287), wk =   0.0030000
        k(   17) = (   0.0000000   0.0577350   0.1536608), wk =   0.0030000
        k(   18) = (   0.0000000   0.0577350   0.1843930), wk =   0.0030000
        k(   19) = (   0.0000000   0.0577350   0.2151251), wk =   0.0030000
        k(   20) = (   0.0000000   0.0577350   0.2458573), wk =   0.0030000
        k(   21) = (   0.0000000   0.0577350   0.2765895), wk =   0.0030000
        k(   22) = (   0.0000000   0.0577350  -0.3073216), wk =   0.0015000
        k(   23) = (   0.0000000   0.1154701   0.0000000), wk =   0.0015000
        k(   24) = (   0.0000000   0.1154701   0.0307322), wk =   0.0030000
        k(   25) = (   0.0000000   0.1154701   0.0614643), wk =   0.0030000
        k(   26) = (   0.0000000   0.1154701   0.0921965), wk =   0.0030000
        k(   27) = (   0.0000000   0.1154701   0.1229287), wk =   0.0030000
        k(   28) = (   0.0000000   0.1154701   0.1536608), wk =   0.0030000
        k(   29) = (   0.0000000   0.1154701   0.1843930), wk =   0.0030000
        k(   30) = (   0.0000000   0.1154701   0.2151251), wk =   0.0030000
        k(   31) = (   0.0000000   0.1154701   0.2458573), wk =   0.0030000
        k(   32) = (   0.0000000   0.1154701   0.2765895), wk =   0.0030000
        k(   33) = (   0.0000000   0.1154701  -0.3073216), wk =   0.0015000
        k(   34) = (   0.0000000   0.1732051   0.0000000), wk =   0.0015000
        k(   35) = (   0.0000000   0.1732051   0.0307322), wk =   0.0030000
        k(   36) = (   0.0000000   0.1732051   0.0614643), wk =   0.0030000
        k(   37) = (   0.0000000   0.1732051   0.0921965), wk =   0.0030000
        k(   38) = (   0.0000000   0.1732051   0.1229287), wk =   0.0030000
        k(   39) = (   0.0000000   0.1732051   0.1536608), wk =   0.0030000
        k(   40) = (   0.0000000   0.1732051   0.1843930), wk =   0.0030000
        k(   41) = (   0.0000000   0.1732051   0.2151251), wk =   0.0030000
        k(   42) = (   0.0000000   0.1732051   0.2458573), wk =   0.0030000
        k(   43) = (   0.0000000   0.1732051   0.2765895), wk =   0.0030000
        k(   44) = (   0.0000000   0.1732051  -0.3073216), wk =   0.0015000
        k(   45) = (   0.0000000   0.2309401   0.0000000), wk =   0.0015000
        k(   46) = (   0.0000000   0.2309401   0.0307322), wk =   0.0030000
        k(   47) = (   0.0000000   0.2309401   0.0614643), wk =   0.0030000
        k(   48) = (   0.0000000   0.2309401   0.0921965), wk =   0.0030000
        k(   49) = (   0.0000000   0.2309401   0.1229287), wk =   0.0030000
        k(   50) = (   0.0000000   0.2309401   0.1536608), wk =   0.0030000
        k(   51) = (   0.0000000   0.2309401   0.1843930), wk =   0.0030000
        k(   52) = (   0.0000000   0.2309401   0.2151251), wk =   0.0030000
        k(   53) = (   0.0000000   0.2309401   0.2458573), wk =   0.0030000
        k(   54) = (   0.0000000   0.2309401   0.2765895), wk =   0.0030000
        k(   55) = (   0.0000000   0.2309401  -0.3073216), wk =   0.0015000
        k(   56) = (   0.0000000   0.2886751   0.0000000), wk =   0.0015000
        k(   57) = (   0.0000000   0.2886751   0.0307322), wk =   0.0030000
        k(   58) = (   0.0000000   0.2886751   0.0614643), wk =   0.0030000
        k(   59) = (   0.0000000   0.2886751   0.0921965), wk =   0.0030000
        k(   60) = (   0.0000000   0.2886751   0.1229287), wk =   0.0030000
        k(   61) = (   0.0000000   0.2886751   0.1536608), wk =   0.0030000
        k(   62) = (   0.0000000   0.2886751   0.1843930), wk =   0.0030000
        k(   63) = (   0.0000000   0.2886751   0.2151251), wk =   0.0030000
        k(   64) = (   0.0000000   0.2886751   0.2458573), wk =   0.0030000
        k(   65) = (   0.0000000   0.2886751   0.2765895), wk =   0.0030000
        k(   66) = (   0.0000000   0.2886751  -0.3073216), wk =   0.0015000
        k(   67) = (   0.0000000   0.3464102   0.0000000), wk =   0.0015000
        k(   68) = (   0.0000000   0.3464102   0.0307322), wk =   0.0030000
        k(   69) = (   0.0000000   0.3464102   0.0614643), wk =   0.0030000
        k(   70) = (   0.0000000   0.3464102   0.0921965), wk =   0.0030000
        k(   71) = (   0.0000000   0.3464102   0.1229287), wk =   0.0030000
        k(   72) = (   0.0000000   0.3464102   0.1536608), wk =   0.0030000
        k(   73) = (   0.0000000   0.3464102   0.1843930), wk =   0.0030000
        k(   74) = (   0.0000000   0.3464102   0.2151251), wk =   0.0030000
        k(   75) = (   0.0000000   0.3464102   0.2458573), wk =   0.0030000
        k(   76) = (   0.0000000   0.3464102   0.2765895), wk =   0.0030000
        k(   77) = (   0.0000000   0.3464102  -0.3073216), wk =   0.0015000
        k(   78) = (   0.0000000   0.4041452   0.0000000), wk =   0.0015000
        k(   79) = (   0.0000000   0.4041452   0.0307322), wk =   0.0030000
        k(   80) = (   0.0000000   0.4041452   0.0614643), wk =   0.0030000
        k(   81) = (   0.0000000   0.4041452   0.0921965), wk =   0.0030000
        k(   82) = (   0.0000000   0.4041452   0.1229287), wk =   0.0030000
        k(   83) = (   0.0000000   0.4041452   0.1536608), wk =   0.0030000
        k(   84) = (   0.0000000   0.4041452   0.1843930), wk =   0.0030000
        k(   85) = (   0.0000000   0.4041452   0.2151251), wk =   0.0030000
        k(   86) = (   0.0000000   0.4041452   0.2458573), wk =   0.0030000
        k(   87) = (   0.0000000   0.4041452   0.2765895), wk =   0.0030000
        k(   88) = (   0.0000000   0.4041452  -0.3073216), wk =   0.0015000
        k(   89) = (   0.0000000   0.4618802   0.0000000), wk =   0.0015000
        k(   90) = (   0.0000000   0.4618802   0.0307322), wk =   0.0030000
        k(   91) = (   0.0000000   0.4618802   0.0614643), wk =   0.0030000
        k(   92) = (   0.0000000   0.4618802   0.0921965), wk =   0.0030000
        k(   93) = (   0.0000000   0.4618802   0.1229287), wk =   0.0030000
        k(   94) = (   0.0000000   0.4618802   0.1536608), wk =   0.0030000
        k(   95) = (   0.0000000   0.4618802   0.1843930), wk =   0.0030000
        k(   96) = (   0.0000000   0.4618802   0.2151251), wk =   0.0030000
        k(   97) = (   0.0000000   0.4618802   0.2458573), wk =   0.0030000
        k(   98) = (   0.0000000   0.4618802   0.2765895), wk =   0.0030000
        k(   99) = (   0.0000000   0.4618802  -0.3073216), wk =   0.0015000
        k(  100) = (   0.0000000   0.5196152   0.0000000), wk =   0.0015000
        k(  101) = (   0.0000000   0.5196152   0.0307322), wk =   0.0030000
        k(  102) = (   0.0000000   0.5196152   0.0614643), wk =   0.0030000
        k(  103) = (   0.0000000   0.5196152   0.0921965), wk =   0.0030000
        k(  104) = (   0.0000000   0.5196152   0.1229287), wk =   0.0030000
        k(  105) = (   0.0000000   0.5196152   0.1536608), wk =   0.0030000
        k(  106) = (   0.0000000   0.5196152   0.1843930), wk =   0.0030000
        k(  107) = (   0.0000000   0.5196152   0.2151251), wk =   0.0030000
        k(  108) = (   0.0000000   0.5196152   0.2458573), wk =   0.0030000
        k(  109) = (   0.0000000   0.5196152   0.2765895), wk =   0.0030000
        k(  110) = (   0.0000000   0.5196152  -0.3073216), wk =   0.0015000
        k(  111) = (   0.0000000  -0.5773503   0.0000000), wk =   0.0007500
        k(  112) = (   0.0000000  -0.5773503   0.0307322), wk =   0.0015000
        k(  113) = (   0.0000000  -0.5773503   0.0614643), wk =   0.0015000
        k(  114) = (   0.0000000  -0.5773503   0.0921965), wk =   0.0015000
        k(  115) = (   0.0000000  -0.5773503   0.1229287), wk =   0.0015000
        k(  116) = (   0.0000000  -0.5773503   0.1536608), wk =   0.0015000
        k(  117) = (   0.0000000  -0.5773503   0.1843930), wk =   0.0015000
        k(  118) = (   0.0000000  -0.5773503   0.2151251), wk =   0.0015000
        k(  119) = (   0.0000000  -0.5773503   0.2458573), wk =   0.0015000
        k(  120) = (   0.0000000  -0.5773503   0.2765895), wk =   0.0015000
        k(  121) = (   0.0000000  -0.5773503  -0.3073216), wk =   0.0007500
        k(  122) = (   0.0500000   0.0866025   0.0000000), wk =   0.0015000
        k(  123) = (   0.0500000   0.0866025   0.0307322), wk =   0.0030000
        k(  124) = (   0.0500000   0.0866025   0.0614643), wk =   0.0030000
        k(  125) = (   0.0500000   0.0866025   0.0921965), wk =   0.0030000
        k(  126) = (   0.0500000   0.0866025   0.1229287), wk =   0.0030000
        k(  127) = (   0.0500000   0.0866025   0.1536608), wk =   0.0030000
        k(  128) = (   0.0500000   0.0866025   0.1843930), wk =   0.0030000
        k(  129) = (   0.0500000   0.0866025   0.2151251), wk =   0.0030000
        k(  130) = (   0.0500000   0.0866025   0.2458573), wk =   0.0030000
        k(  131) = (   0.0500000   0.0866025   0.2765895), wk =   0.0030000
        k(  132) = (   0.0500000   0.0866025  -0.3073216), wk =   0.0015000
        k(  133) = (   0.0500000   0.1443376   0.0000000), wk =   0.0030000
        k(  134) = (   0.0500000   0.1443376   0.0307322), wk =   0.0060000
        k(  135) = (   0.0500000   0.1443376   0.0614643), wk =   0.0060000
        k(  136) = (   0.0500000   0.1443376   0.0921965), wk =   0.0060000
        k(  137) = (   0.0500000   0.1443376   0.1229287), wk =   0.0060000
        k(  138) = (   0.0500000   0.1443376   0.1536608), wk =   0.0060000
        k(  139) = (   0.0500000   0.1443376   0.1843930), wk =   0.0060000
        k(  140) = (   0.0500000   0.1443376   0.2151251), wk =   0.0060000
        k(  141) = (   0.0500000   0.1443376   0.2458573), wk =   0.0060000
        k(  142) = (   0.0500000   0.1443376   0.2765895), wk =   0.0060000
        k(  143) = (   0.0500000   0.1443376  -0.3073216), wk =   0.0030000
        k(  144) = (   0.0500000   0.2020726   0.0000000), wk =   0.0030000
        k(  145) = (   0.0500000   0.2020726   0.0307322), wk =   0.0060000
        k(  146) = (   0.0500000   0.2020726   0.0614643), wk =   0.0060000
        k(  147) = (   0.0500000   0.2020726   0.0921965), wk =   0.0060000
        k(  148) = (   0.0500000   0.2020726   0.1229287), wk =   0.0060000
        k(  149) = (   0.0500000   0.2020726   0.1536608), wk =   0.0060000
        k(  150) = (   0.0500000   0.2020726   0.1843930), wk =   0.0060000
        k(  151) = (   0.0500000   0.2020726   0.2151251), wk =   0.0060000
        k(  152) = (   0.0500000   0.2020726   0.2458573), wk =   0.0060000
        k(  153) = (   0.0500000   0.2020726   0.2765895), wk =   0.0060000
        k(  154) = (   0.0500000   0.2020726  -0.3073216), wk =   0.0030000
        k(  155) = (   0.0500000   0.2598076   0.0000000), wk =   0.0030000
        k(  156) = (   0.0500000   0.2598076   0.0307322), wk =   0.0060000
        k(  157) = (   0.0500000   0.2598076   0.0614643), wk =   0.0060000
        k(  158) = (   0.0500000   0.2598076   0.0921965), wk =   0.0060000
        k(  159) = (   0.0500000   0.2598076   0.1229287), wk =   0.0060000
        k(  160) = (   0.0500000   0.2598076   0.1536608), wk =   0.0060000
        k(  161) = (   0.0500000   0.2598076   0.1843930), wk =   0.0060000
        k(  162) = (   0.0500000   0.2598076   0.2151251), wk =   0.0060000
        k(  163) = (   0.0500000   0.2598076   0.2458573), wk =   0.0060000
        k(  164) = (   0.0500000   0.2598076   0.2765895), wk =   0.0060000
        k(  165) = (   0.0500000   0.2598076  -0.3073216), wk =   0.0030000
        k(  166) = (   0.0500000   0.3175426   0.0000000), wk =   0.0030000
        k(  167) = (   0.0500000   0.3175426   0.0307322), wk =   0.0060000
        k(  168) = (   0.0500000   0.3175426   0.0614643), wk =   0.0060000
        k(  169) = (   0.0500000   0.3175426   0.0921965), wk =   0.0060000
        k(  170) = (   0.0500000   0.3175426   0.1229287), wk =   0.0060000
        k(  171) = (   0.0500000   0.3175426   0.1536608), wk =   0.0060000
        k(  172) = (   0.0500000   0.3175426   0.1843930), wk =   0.0060000
        k(  173) = (   0.0500000   0.3175426   0.2151251), wk =   0.0060000
        k(  174) = (   0.0500000   0.3175426   0.2458573), wk =   0.0060000
        k(  175) = (   0.0500000   0.3175426   0.2765895), wk =   0.0060000
        k(  176) = (   0.0500000   0.3175426  -0.3073216), wk =   0.0030000
        k(  177) = (   0.0500000   0.3752777   0.0000000), wk =   0.0030000
        k(  178) = (   0.0500000   0.3752777   0.0307322), wk =   0.0060000
        k(  179) = (   0.0500000   0.3752777   0.0614643), wk =   0.0060000
        k(  180) = (   0.0500000   0.3752777   0.0921965), wk =   0.0060000
        k(  181) = (   0.0500000   0.3752777   0.1229287), wk =   0.0060000
        k(  182) = (   0.0500000   0.3752777   0.1536608), wk =   0.0060000
        k(  183) = (   0.0500000   0.3752777   0.1843930), wk =   0.0060000
        k(  184) = (   0.0500000   0.3752777   0.2151251), wk =   0.0060000
        k(  185) = (   0.0500000   0.3752777   0.2458573), wk =   0.0060000
        k(  186) = (   0.0500000   0.3752777   0.2765895), wk =   0.0060000
        k(  187) = (   0.0500000   0.3752777  -0.3073216), wk =   0.0030000
        k(  188) = (   0.0500000   0.4330127   0.0000000), wk =   0.0030000
        k(  189) = (   0.0500000   0.4330127   0.0307322), wk =   0.0060000
        k(  190) = (   0.0500000   0.4330127   0.0614643), wk =   0.0060000
        k(  191) = (   0.0500000   0.4330127   0.0921965), wk =   0.0060000
        k(  192) = (   0.0500000   0.4330127   0.1229287), wk =   0.0060000
        k(  193) = (   0.0500000   0.4330127   0.1536608), wk =   0.0060000
        k(  194) = (   0.0500000   0.4330127   0.1843930), wk =   0.0060000
        k(  195) = (   0.0500000   0.4330127   0.2151251), wk =   0.0060000
        k(  196) = (   0.0500000   0.4330127   0.2458573), wk =   0.0060000
        k(  197) = (   0.0500000   0.4330127   0.2765895), wk =   0.0060000
        k(  198) = (   0.0500000   0.4330127  -0.3073216), wk =   0.0030000
        k(  199) = (   0.0500000   0.4907477   0.0000000), wk =   0.0030000
        k(  200) = (   0.0500000   0.4907477   0.0307322), wk =   0.0060000
        k(  201) = (   0.0500000   0.4907477   0.0614643), wk =   0.0060000
        k(  202) = (   0.0500000   0.4907477   0.0921965), wk =   0.0060000
        k(  203) = (   0.0500000   0.4907477   0.1229287), wk =   0.0060000
        k(  204) = (   0.0500000   0.4907477   0.1536608), wk =   0.0060000
        k(  205) = (   0.0500000   0.4907477   0.1843930), wk =   0.0060000
        k(  206) = (   0.0500000   0.4907477   0.2151251), wk =   0.0060000
        k(  207) = (   0.0500000   0.4907477   0.2458573), wk =   0.0060000
        k(  208) = (   0.0500000   0.4907477   0.2765895), wk =   0.0060000
        k(  209) = (   0.0500000   0.4907477  -0.3073216), wk =   0.0030000
        k(  210) = (   0.0500000   0.5484828   0.0000000), wk =   0.0030000
        k(  211) = (   0.0500000   0.5484828   0.0307322), wk =   0.0060000
        k(  212) = (   0.0500000   0.5484828   0.0614643), wk =   0.0060000
        k(  213) = (   0.0500000   0.5484828   0.0921965), wk =   0.0060000
        k(  214) = (   0.0500000   0.5484828   0.1229287), wk =   0.0060000
        k(  215) = (   0.0500000   0.5484828   0.1536608), wk =   0.0060000
        k(  216) = (   0.0500000   0.5484828   0.1843930), wk =   0.0060000
        k(  217) = (   0.0500000   0.5484828   0.2151251), wk =   0.0060000
        k(  218) = (   0.0500000   0.5484828   0.2458573), wk =   0.0060000
        k(  219) = (   0.0500000   0.5484828   0.2765895), wk =   0.0060000
        k(  220) = (   0.0500000   0.5484828  -0.3073216), wk =   0.0030000
        k(  221) = (   0.1000000   0.1732051   0.0000000), wk =   0.0015000
        k(  222) = (   0.1000000   0.1732051   0.0307322), wk =   0.0030000
        k(  223) = (   0.1000000   0.1732051   0.0614643), wk =   0.0030000
        k(  224) = (   0.1000000   0.1732051   0.0921965), wk =   0.0030000
        k(  225) = (   0.1000000   0.1732051   0.1229287), wk =   0.0030000
        k(  226) = (   0.1000000   0.1732051   0.1536608), wk =   0.0030000
        k(  227) = (   0.1000000   0.1732051   0.1843930), wk =   0.0030000
        k(  228) = (   0.1000000   0.1732051   0.2151251), wk =   0.0030000
        k(  229) = (   0.1000000   0.1732051   0.2458573), wk =   0.0030000
        k(  230) = (   0.1000000   0.1732051   0.2765895), wk =   0.0030000
        k(  231) = (   0.1000000   0.1732051  -0.3073216), wk =   0.0015000
        k(  232) = (   0.1000000   0.2309401   0.0000000), wk =   0.0030000
        k(  233) = (   0.1000000   0.2309401   0.0307322), wk =   0.0060000
        k(  234) = (   0.1000000   0.2309401   0.0614643), wk =   0.0060000
        k(  235) = (   0.1000000   0.2309401   0.0921965), wk =   0.0060000
        k(  236) = (   0.1000000   0.2309401   0.1229287), wk =   0.0060000
        k(  237) = (   0.1000000   0.2309401   0.1536608), wk =   0.0060000
        k(  238) = (   0.1000000   0.2309401   0.1843930), wk =   0.0060000
        k(  239) = (   0.1000000   0.2309401   0.2151251), wk =   0.0060000
        k(  240) = (   0.1000000   0.2309401   0.2458573), wk =   0.0060000
        k(  241) = (   0.1000000   0.2309401   0.2765895), wk =   0.0060000
        k(  242) = (   0.1000000   0.2309401  -0.3073216), wk =   0.0030000
        k(  243) = (   0.1000000   0.2886751   0.0000000), wk =   0.0030000
        k(  244) = (   0.1000000   0.2886751   0.0307322), wk =   0.0060000
        k(  245) = (   0.1000000   0.2886751   0.0614643), wk =   0.0060000
        k(  246) = (   0.1000000   0.2886751   0.0921965), wk =   0.0060000
        k(  247) = (   0.1000000   0.2886751   0.1229287), wk =   0.0060000
        k(  248) = (   0.1000000   0.2886751   0.1536608), wk =   0.0060000
        k(  249) = (   0.1000000   0.2886751   0.1843930), wk =   0.0060000
        k(  250) = (   0.1000000   0.2886751   0.2151251), wk =   0.0060000
        k(  251) = (   0.1000000   0.2886751   0.2458573), wk =   0.0060000
        k(  252) = (   0.1000000   0.2886751   0.2765895), wk =   0.0060000
        k(  253) = (   0.1000000   0.2886751  -0.3073216), wk =   0.0030000
        k(  254) = (   0.1000000   0.3464102   0.0000000), wk =   0.0030000
        k(  255) = (   0.1000000   0.3464102   0.0307322), wk =   0.0060000
        k(  256) = (   0.1000000   0.3464102   0.0614643), wk =   0.0060000
        k(  257) = (   0.1000000   0.3464102   0.0921965), wk =   0.0060000
        k(  258) = (   0.1000000   0.3464102   0.1229287), wk =   0.0060000
        k(  259) = (   0.1000000   0.3464102   0.1536608), wk =   0.0060000
        k(  260) = (   0.1000000   0.3464102   0.1843930), wk =   0.0060000
        k(  261) = (   0.1000000   0.3464102   0.2151251), wk =   0.0060000
        k(  262) = (   0.1000000   0.3464102   0.2458573), wk =   0.0060000
        k(  263) = (   0.1000000   0.3464102   0.2765895), wk =   0.0060000
        k(  264) = (   0.1000000   0.3464102  -0.3073216), wk =   0.0030000
        k(  265) = (   0.1000000   0.4041452   0.0000000), wk =   0.0030000
        k(  266) = (   0.1000000   0.4041452   0.0307322), wk =   0.0060000
        k(  267) = (   0.1000000   0.4041452   0.0614643), wk =   0.0060000
        k(  268) = (   0.1000000   0.4041452   0.0921965), wk =   0.0060000
        k(  269) = (   0.1000000   0.4041452   0.1229287), wk =   0.0060000
        k(  270) = (   0.1000000   0.4041452   0.1536608), wk =   0.0060000
        k(  271) = (   0.1000000   0.4041452   0.1843930), wk =   0.0060000
        k(  272) = (   0.1000000   0.4041452   0.2151251), wk =   0.0060000
        k(  273) = (   0.1000000   0.4041452   0.2458573), wk =   0.0060000
        k(  274) = (   0.1000000   0.4041452   0.2765895), wk =   0.0060000
        k(  275) = (   0.1000000   0.4041452  -0.3073216), wk =   0.0030000
        k(  276) = (   0.1000000   0.4618802   0.0000000), wk =   0.0030000
        k(  277) = (   0.1000000   0.4618802   0.0307322), wk =   0.0060000
        k(  278) = (   0.1000000   0.4618802   0.0614643), wk =   0.0060000
        k(  279) = (   0.1000000   0.4618802   0.0921965), wk =   0.0060000
        k(  280) = (   0.1000000   0.4618802   0.1229287), wk =   0.0060000
        k(  281) = (   0.1000000   0.4618802   0.1536608), wk =   0.0060000
        k(  282) = (   0.1000000   0.4618802   0.1843930), wk =   0.0060000
        k(  283) = (   0.1000000   0.4618802   0.2151251), wk =   0.0060000
        k(  284) = (   0.1000000   0.4618802   0.2458573), wk =   0.0060000
        k(  285) = (   0.1000000   0.4618802   0.2765895), wk =   0.0060000
        k(  286) = (   0.1000000   0.4618802  -0.3073216), wk =   0.0030000
        k(  287) = (   0.1000000   0.5196152   0.0000000), wk =   0.0030000
        k(  288) = (   0.1000000   0.5196152   0.0307322), wk =   0.0060000
        k(  289) = (   0.1000000   0.5196152   0.0614643), wk =   0.0060000
        k(  290) = (   0.1000000   0.5196152   0.0921965), wk =   0.0060000
        k(  291) = (   0.1000000   0.5196152   0.1229287), wk =   0.0060000
        k(  292) = (   0.1000000   0.5196152   0.1536608), wk =   0.0060000
        k(  293) = (   0.1000000   0.5196152   0.1843930), wk =   0.0060000
        k(  294) = (   0.1000000   0.5196152   0.2151251), wk =   0.0060000
        k(  295) = (   0.1000000   0.5196152   0.2458573), wk =   0.0060000
        k(  296) = (   0.1000000   0.5196152   0.2765895), wk =   0.0060000
        k(  297) = (   0.1000000   0.5196152  -0.3073216), wk =   0.0030000
        k(  298) = (   0.1000000   0.5773503   0.0000000), wk =   0.0015000
        k(  299) = (   0.1000000   0.5773503   0.0307322), wk =   0.0030000
        k(  300) = (   0.1000000   0.5773503   0.0614643), wk =   0.0030000
        k(  301) = (   0.1000000   0.5773503   0.0921965), wk =   0.0030000
        k(  302) = (   0.1000000   0.5773503   0.1229287), wk =   0.0030000
        k(  303) = (   0.1000000   0.5773503   0.1536608), wk =   0.0030000
        k(  304) = (   0.1000000   0.5773503   0.1843930), wk =   0.0030000
        k(  305) = (   0.1000000   0.5773503   0.2151251), wk =   0.0030000
        k(  306) = (   0.1000000   0.5773503   0.2458573), wk =   0.0030000
        k(  307) = (   0.1000000   0.5773503   0.2765895), wk =   0.0030000
        k(  308) = (   0.1000000   0.5773503  -0.3073216), wk =   0.0015000
        k(  309) = (   0.1500000   0.2598076   0.0000000), wk =   0.0015000
        k(  310) = (   0.1500000   0.2598076   0.0307322), wk =   0.0030000
        k(  311) = (   0.1500000   0.2598076   0.0614643), wk =   0.0030000
        k(  312) = (   0.1500000   0.2598076   0.0921965), wk =   0.0030000
        k(  313) = (   0.1500000   0.2598076   0.1229287), wk =   0.0030000
        k(  314) = (   0.1500000   0.2598076   0.1536608), wk =   0.0030000
        k(  315) = (   0.1500000   0.2598076   0.1843930), wk =   0.0030000
        k(  316) = (   0.1500000   0.2598076   0.2151251), wk =   0.0030000
        k(  317) = (   0.1500000   0.2598076   0.2458573), wk =   0.0030000
        k(  318) = (   0.1500000   0.2598076   0.2765895), wk =   0.0030000
        k(  319) = (   0.1500000   0.2598076  -0.3073216), wk =   0.0015000
        k(  320) = (   0.1500000   0.3175426   0.0000000), wk =   0.0030000
        k(  321) = (   0.1500000   0.3175426   0.0307322), wk =   0.0060000
        k(  322) = (   0.1500000   0.3175426   0.0614643), wk =   0.0060000
        k(  323) = (   0.1500000   0.3175426   0.0921965), wk =   0.0060000
        k(  324) = (   0.1500000   0.3175426   0.1229287), wk =   0.0060000
        k(  325) = (   0.1500000   0.3175426   0.1536608), wk =   0.0060000
        k(  326) = (   0.1500000   0.3175426   0.1843930), wk =   0.0060000
        k(  327) = (   0.1500000   0.3175426   0.2151251), wk =   0.0060000
        k(  328) = (   0.1500000   0.3175426   0.2458573), wk =   0.0060000
        k(  329) = (   0.1500000   0.3175426   0.2765895), wk =   0.0060000
        k(  330) = (   0.1500000   0.3175426  -0.3073216), wk =   0.0030000
        k(  331) = (   0.1500000   0.3752777   0.0000000), wk =   0.0030000
        k(  332) = (   0.1500000   0.3752777   0.0307322), wk =   0.0060000
        k(  333) = (   0.1500000   0.3752777   0.0614643), wk =   0.0060000
        k(  334) = (   0.1500000   0.3752777   0.0921965), wk =   0.0060000
        k(  335) = (   0.1500000   0.3752777   0.1229287), wk =   0.0060000
        k(  336) = (   0.1500000   0.3752777   0.1536608), wk =   0.0060000
        k(  337) = (   0.1500000   0.3752777   0.1843930), wk =   0.0060000
        k(  338) = (   0.1500000   0.3752777   0.2151251), wk =   0.0060000
        k(  339) = (   0.1500000   0.3752777   0.2458573), wk =   0.0060000
        k(  340) = (   0.1500000   0.3752777   0.2765895), wk =   0.0060000
        k(  341) = (   0.1500000   0.3752777  -0.3073216), wk =   0.0030000
        k(  342) = (   0.1500000   0.4330127   0.0000000), wk =   0.0030000
        k(  343) = (   0.1500000   0.4330127   0.0307322), wk =   0.0060000
        k(  344) = (   0.1500000   0.4330127   0.0614643), wk =   0.0060000
        k(  345) = (   0.1500000   0.4330127   0.0921965), wk =   0.0060000
        k(  346) = (   0.1500000   0.4330127   0.1229287), wk =   0.0060000
        k(  347) = (   0.1500000   0.4330127   0.1536608), wk =   0.0060000
        k(  348) = (   0.1500000   0.4330127   0.1843930), wk =   0.0060000
        k(  349) = (   0.1500000   0.4330127   0.2151251), wk =   0.0060000
        k(  350) = (   0.1500000   0.4330127   0.2458573), wk =   0.0060000
        k(  351) = (   0.1500000   0.4330127   0.2765895), wk =   0.0060000
        k(  352) = (   0.1500000   0.4330127  -0.3073216), wk =   0.0030000
        k(  353) = (   0.1500000   0.4907477   0.0000000), wk =   0.0030000
        k(  354) = (   0.1500000   0.4907477   0.0307322), wk =   0.0060000
        k(  355) = (   0.1500000   0.4907477   0.0614643), wk =   0.0060000
        k(  356) = (   0.1500000   0.4907477   0.0921965), wk =   0.0060000
        k(  357) = (   0.1500000   0.4907477   0.1229287), wk =   0.0060000
        k(  358) = (   0.1500000   0.4907477   0.1536608), wk =   0.0060000
        k(  359) = (   0.1500000   0.4907477   0.1843930), wk =   0.0060000
        k(  360) = (   0.1500000   0.4907477   0.2151251), wk =   0.0060000
        k(  361) = (   0.1500000   0.4907477   0.2458573), wk =   0.0060000
        k(  362) = (   0.1500000   0.4907477   0.2765895), wk =   0.0060000
        k(  363) = (   0.1500000   0.4907477  -0.3073216), wk =   0.0030000
        k(  364) = (   0.1500000   0.5484828   0.0000000), wk =   0.0030000
        k(  365) = (   0.1500000   0.5484828   0.0307322), wk =   0.0060000
        k(  366) = (   0.1500000   0.5484828   0.0614643), wk =   0.0060000
        k(  367) = (   0.1500000   0.5484828   0.0921965), wk =   0.0060000
        k(  368) = (   0.1500000   0.5484828   0.1229287), wk =   0.0060000
        k(  369) = (   0.1500000   0.5484828   0.1536608), wk =   0.0060000
        k(  370) = (   0.1500000   0.5484828   0.1843930), wk =   0.0060000
        k(  371) = (   0.1500000   0.5484828   0.2151251), wk =   0.0060000
        k(  372) = (   0.1500000   0.5484828   0.2458573), wk =   0.0060000
        k(  373) = (   0.1500000   0.5484828   0.2765895), wk =   0.0060000
        k(  374) = (   0.1500000   0.5484828  -0.3073216), wk =   0.0030000
        k(  375) = (   0.2000000   0.3464102   0.0000000), wk =   0.0015000
        k(  376) = (   0.2000000   0.3464102   0.0307322), wk =   0.0030000
        k(  377) = (   0.2000000   0.3464102   0.0614643), wk =   0.0030000
        k(  378) = (   0.2000000   0.3464102   0.0921965), wk =   0.0030000
        k(  379) = (   0.2000000   0.3464102   0.1229287), wk =   0.0030000
        k(  380) = (   0.2000000   0.3464102   0.1536608), wk =   0.0030000
        k(  381) = (   0.2000000   0.3464102   0.1843930), wk =   0.0030000
        k(  382) = (   0.2000000   0.3464102   0.2151251), wk =   0.0030000
        k(  383) = (   0.2000000   0.3464102   0.2458573), wk =   0.0030000
        k(  384) = (   0.2000000   0.3464102   0.2765895), wk =   0.0030000
        k(  385) = (   0.2000000   0.3464102  -0.3073216), wk =   0.0015000
        k(  386) = (   0.2000000   0.4041452   0.0000000), wk =   0.0030000
        k(  387) = (   0.2000000   0.4041452   0.0307322), wk =   0.0060000
        k(  388) = (   0.2000000   0.4041452   0.0614643), wk =   0.0060000
        k(  389) = (   0.2000000   0.4041452   0.0921965), wk =   0.0060000
        k(  390) = (   0.2000000   0.4041452   0.1229287), wk =   0.0060000
        k(  391) = (   0.2000000   0.4041452   0.1536608), wk =   0.0060000
        k(  392) = (   0.2000000   0.4041452   0.1843930), wk =   0.0060000
        k(  393) = (   0.2000000   0.4041452   0.2151251), wk =   0.0060000
        k(  394) = (   0.2000000   0.4041452   0.2458573), wk =   0.0060000
        k(  395) = (   0.2000000   0.4041452   0.2765895), wk =   0.0060000
        k(  396) = (   0.2000000   0.4041452  -0.3073216), wk =   0.0030000
        k(  397) = (   0.2000000   0.4618802   0.0000000), wk =   0.0030000
        k(  398) = (   0.2000000   0.4618802   0.0307322), wk =   0.0060000
        k(  399) = (   0.2000000   0.4618802   0.0614643), wk =   0.0060000
        k(  400) = (   0.2000000   0.4618802   0.0921965), wk =   0.0060000
        k(  401) = (   0.2000000   0.4618802   0.1229287), wk =   0.0060000
        k(  402) = (   0.2000000   0.4618802   0.1536608), wk =   0.0060000
        k(  403) = (   0.2000000   0.4618802   0.1843930), wk =   0.0060000
        k(  404) = (   0.2000000   0.4618802   0.2151251), wk =   0.0060000
        k(  405) = (   0.2000000   0.4618802   0.2458573), wk =   0.0060000
        k(  406) = (   0.2000000   0.4618802   0.2765895), wk =   0.0060000
        k(  407) = (   0.2000000   0.4618802  -0.3073216), wk =   0.0030000
        k(  408) = (   0.2000000   0.5196152   0.0000000), wk =   0.0030000
        k(  409) = (   0.2000000   0.5196152   0.0307322), wk =   0.0060000
        k(  410) = (   0.2000000   0.5196152   0.0614643), wk =   0.0060000
        k(  411) = (   0.2000000   0.5196152   0.0921965), wk =   0.0060000
        k(  412) = (   0.2000000   0.5196152   0.1229287), wk =   0.0060000
        k(  413) = (   0.2000000   0.5196152   0.1536608), wk =   0.0060000
        k(  414) = (   0.2000000   0.5196152   0.1843930), wk =   0.0060000
        k(  415) = (   0.2000000   0.5196152   0.2151251), wk =   0.0060000
        k(  416) = (   0.2000000   0.5196152   0.2458573), wk =   0.0060000
        k(  417) = (   0.2000000   0.5196152   0.2765895), wk =   0.0060000
        k(  418) = (   0.2000000   0.5196152  -0.3073216), wk =   0.0030000
        k(  419) = (   0.2000000   0.5773503   0.0000000), wk =   0.0015000
        k(  420) = (   0.2000000   0.5773503   0.0307322), wk =   0.0030000
        k(  421) = (   0.2000000   0.5773503   0.0614643), wk =   0.0030000
        k(  422) = (   0.2000000   0.5773503   0.0921965), wk =   0.0030000
        k(  423) = (   0.2000000   0.5773503   0.1229287), wk =   0.0030000
        k(  424) = (   0.2000000   0.5773503   0.1536608), wk =   0.0030000
        k(  425) = (   0.2000000   0.5773503   0.1843930), wk =   0.0030000
        k(  426) = (   0.2000000   0.5773503   0.2151251), wk =   0.0030000
        k(  427) = (   0.2000000   0.5773503   0.2458573), wk =   0.0030000
        k(  428) = (   0.2000000   0.5773503   0.2765895), wk =   0.0030000
        k(  429) = (   0.2000000   0.5773503  -0.3073216), wk =   0.0015000
        k(  430) = (   0.2500000   0.4330127   0.0000000), wk =   0.0015000
        k(  431) = (   0.2500000   0.4330127   0.0307322), wk =   0.0030000
        k(  432) = (   0.2500000   0.4330127   0.0614643), wk =   0.0030000
        k(  433) = (   0.2500000   0.4330127   0.0921965), wk =   0.0030000
        k(  434) = (   0.2500000   0.4330127   0.1229287), wk =   0.0030000
        k(  435) = (   0.2500000   0.4330127   0.1536608), wk =   0.0030000
        k(  436) = (   0.2500000   0.4330127   0.1843930), wk =   0.0030000
        k(  437) = (   0.2500000   0.4330127   0.2151251), wk =   0.0030000
        k(  438) = (   0.2500000   0.4330127   0.2458573), wk =   0.0030000
        k(  439) = (   0.2500000   0.4330127   0.2765895), wk =   0.0030000
        k(  440) = (   0.2500000   0.4330127  -0.3073216), wk =   0.0015000
        k(  441) = (   0.2500000   0.4907477   0.0000000), wk =   0.0030000
        k(  442) = (   0.2500000   0.4907477   0.0307322), wk =   0.0060000
        k(  443) = (   0.2500000   0.4907477   0.0614643), wk =   0.0060000
        k(  444) = (   0.2500000   0.4907477   0.0921965), wk =   0.0060000
        k(  445) = (   0.2500000   0.4907477   0.1229287), wk =   0.0060000
        k(  446) = (   0.2500000   0.4907477   0.1536608), wk =   0.0060000
        k(  447) = (   0.2500000   0.4907477   0.1843930), wk =   0.0060000
        k(  448) = (   0.2500000   0.4907477   0.2151251), wk =   0.0060000
        k(  449) = (   0.2500000   0.4907477   0.2458573), wk =   0.0060000
        k(  450) = (   0.2500000   0.4907477   0.2765895), wk =   0.0060000
        k(  451) = (   0.2500000   0.4907477  -0.3073216), wk =   0.0030000
        k(  452) = (   0.2500000   0.5484828   0.0000000), wk =   0.0030000
        k(  453) = (   0.2500000   0.5484828   0.0307322), wk =   0.0060000
        k(  454) = (   0.2500000   0.5484828   0.0614643), wk =   0.0060000
        k(  455) = (   0.2500000   0.5484828   0.0921965), wk =   0.0060000
        k(  456) = (   0.2500000   0.5484828   0.1229287), wk =   0.0060000
        k(  457) = (   0.2500000   0.5484828   0.1536608), wk =   0.0060000
        k(  458) = (   0.2500000   0.5484828   0.1843930), wk =   0.0060000
        k(  459) = (   0.2500000   0.5484828   0.2151251), wk =   0.0060000
        k(  460) = (   0.2500000   0.5484828   0.2458573), wk =   0.0060000
        k(  461) = (   0.2500000   0.5484828   0.2765895), wk =   0.0060000
        k(  462) = (   0.2500000   0.5484828  -0.3073216), wk =   0.0030000
        k(  463) = (   0.3000000   0.5196152   0.0000000), wk =   0.0015000
        k(  464) = (   0.3000000   0.5196152   0.0307322), wk =   0.0030000
        k(  465) = (   0.3000000   0.5196152   0.0614643), wk =   0.0030000
        k(  466) = (   0.3000000   0.5196152   0.0921965), wk =   0.0030000
        k(  467) = (   0.3000000   0.5196152   0.1229287), wk =   0.0030000
        k(  468) = (   0.3000000   0.5196152   0.1536608), wk =   0.0030000
        k(  469) = (   0.3000000   0.5196152   0.1843930), wk =   0.0030000
        k(  470) = (   0.3000000   0.5196152   0.2151251), wk =   0.0030000
        k(  471) = (   0.3000000   0.5196152   0.2458573), wk =   0.0030000
        k(  472) = (   0.3000000   0.5196152   0.2765895), wk =   0.0030000
        k(  473) = (   0.3000000   0.5196152  -0.3073216), wk =   0.0015000
        k(  474) = (   0.3000000   0.5773503   0.0000000), wk =   0.0015000
        k(  475) = (   0.3000000   0.5773503   0.0307322), wk =   0.0030000
        k(  476) = (   0.3000000   0.5773503   0.0614643), wk =   0.0030000
        k(  477) = (   0.3000000   0.5773503   0.0921965), wk =   0.0030000
        k(  478) = (   0.3000000   0.5773503   0.1229287), wk =   0.0030000
        k(  479) = (   0.3000000   0.5773503   0.1536608), wk =   0.0030000
        k(  480) = (   0.3000000   0.5773503   0.1843930), wk =   0.0030000
        k(  481) = (   0.3000000   0.5773503   0.2151251), wk =   0.0030000
        k(  482) = (   0.3000000   0.5773503   0.2458573), wk =   0.0030000
        k(  483) = (   0.3000000   0.5773503   0.2765895), wk =   0.0030000
        k(  484) = (   0.3000000   0.5773503  -0.3073216), wk =   0.0015000

                       cryst. coord.
        k(    1) = (   0.0000000   0.0000000   0.0000000), wk =   0.0002500
        k(    2) = (   0.0000000   0.0000000   0.0500000), wk =   0.0005000
        k(    3) = (   0.0000000   0.0000000   0.1000000), wk =   0.0005000
        k(    4) = (   0.0000000   0.0000000   0.1500000), wk =   0.0005000
        k(    5) = (   0.0000000   0.0000000   0.2000000), wk =   0.0005000
        k(    6) = (   0.0000000   0.0000000   0.2500000), wk =   0.0005000
        k(    7) = (   0.0000000   0.0000000   0.3000000), wk =   0.0005000
        k(    8) = (   0.0000000   0.0000000   0.3500000), wk =   0.0005000
        k(    9) = (   0.0000000   0.0000000   0.4000000), wk =   0.0005000
        k(   10) = (   0.0000000   0.0000000   0.4500000), wk =   0.0005000
        k(   11) = (   0.0000000   0.0000000  -0.5000000), wk =   0.0002500
        k(   12) = (   0.0000000   0.0500000   0.0000000), wk =   0.0015000
        k(   13) = (   0.0000000   0.0500000   0.0500000), wk =   0.0030000
        k(   14) = (   0.0000000   0.0500000   0.1000000), wk =   0.0030000
        k(   15) = (   0.0000000   0.0500000   0.1500000), wk =   0.0030000
        k(   16) = (   0.0000000   0.0500000   0.2000000), wk =   0.0030000
        k(   17) = (   0.0000000   0.0500000   0.2500000), wk =   0.0030000
        k(   18) = (   0.0000000   0.0500000   0.3000000), wk =   0.0030000
        k(   19) = (   0.0000000   0.0500000   0.3500000), wk =   0.0030000
        k(   20) = (   0.0000000   0.0500000   0.4000000), wk =   0.0030000
        k(   21) = (   0.0000000   0.0500000   0.4500000), wk =   0.0030000
        k(   22) = (   0.0000000   0.0500000  -0.5000000), wk =   0.0015000
        k(   23) = (   0.0000000   0.1000000   0.0000000), wk =   0.0015000
        k(   24) = (   0.0000000   0.1000000   0.0500000), wk =   0.0030000
        k(   25) = (   0.0000000   0.1000000   0.1000000), wk =   0.0030000
        k(   26) = (   0.0000000   0.1000000   0.1500000), wk =   0.0030000
        k(   27) = (   0.0000000   0.1000000   0.2000000), wk =   0.0030000
        k(   28) = (   0.0000000   0.1000000   0.2500000), wk =   0.0030000
        k(   29) = (   0.0000000   0.1000000   0.3000000), wk =   0.0030000
        k(   30) = (   0.0000000   0.1000000   0.3500000), wk =   0.0030000
        k(   31) = (   0.0000000   0.1000000   0.4000000), wk =   0.0030000
        k(   32) = (   0.0000000   0.1000000   0.4500000), wk =   0.0030000
        k(   33) = (   0.0000000   0.1000000  -0.5000000), wk =   0.0015000
        k(   34) = (   0.0000000   0.1500000   0.0000000), wk =   0.0015000
        k(   35) = (   0.0000000   0.1500000   0.0500000), wk =   0.0030000
        k(   36) = (   0.0000000   0.1500000   0.1000000), wk =   0.0030000
        k(   37) = (   0.0000000   0.1500000   0.1500000), wk =   0.0030000
        k(   38) = (   0.0000000   0.1500000   0.2000000), wk =   0.0030000
        k(   39) = (   0.0000000   0.1500000   0.2500000), wk =   0.0030000
        k(   40) = (   0.0000000   0.1500000   0.3000000), wk =   0.0030000
        k(   41) = (   0.0000000   0.1500000   0.3500000), wk =   0.0030000
        k(   42) = (   0.0000000   0.1500000   0.4000000), wk =   0.0030000
        k(   43) = (   0.0000000   0.1500000   0.4500000), wk =   0.0030000
        k(   44) = (   0.0000000   0.1500000  -0.5000000), wk =   0.0015000
        k(   45) = (   0.0000000   0.2000000   0.0000000), wk =   0.0015000
        k(   46) = (   0.0000000   0.2000000   0.0500000), wk =   0.0030000
        k(   47) = (   0.0000000   0.2000000   0.1000000), wk =   0.0030000
        k(   48) = (   0.0000000   0.2000000   0.1500000), wk =   0.0030000
        k(   49) = (   0.0000000   0.2000000   0.2000000), wk =   0.0030000
        k(   50) = (   0.0000000   0.2000000   0.2500000), wk =   0.0030000
        k(   51) = (   0.0000000   0.2000000   0.3000000), wk =   0.0030000
        k(   52) = (   0.0000000   0.2000000   0.3500000), wk =   0.0030000
        k(   53) = (   0.0000000   0.2000000   0.4000000), wk =   0.0030000
        k(   54) = (   0.0000000   0.2000000   0.4500000), wk =   0.0030000
        k(   55) = (   0.0000000   0.2000000  -0.5000000), wk =   0.0015000
        k(   56) = (   0.0000000   0.2500000   0.0000000), wk =   0.0015000
        k(   57) = (   0.0000000   0.2500000   0.0500000), wk =   0.0030000
        k(   58) = (   0.0000000   0.2500000   0.1000000), wk =   0.0030000
        k(   59) = (   0.0000000   0.2500000   0.1500000), wk =   0.0030000
        k(   60) = (   0.0000000   0.2500000   0.2000000), wk =   0.0030000
        k(   61) = (   0.0000000   0.2500000   0.2500000), wk =   0.0030000
        k(   62) = (   0.0000000   0.2500000   0.3000000), wk =   0.0030000
        k(   63) = (   0.0000000   0.2500000   0.3500000), wk =   0.0030000
        k(   64) = (   0.0000000   0.2500000   0.4000000), wk =   0.0030000
        k(   65) = (   0.0000000   0.2500000   0.4500000), wk =   0.0030000
        k(   66) = (   0.0000000   0.2500000  -0.5000000), wk =   0.0015000
        k(   67) = (   0.0000000   0.3000000   0.0000000), wk =   0.0015000
        k(   68) = (   0.0000000   0.3000000   0.0500000), wk =   0.0030000
        k(   69) = (   0.0000000   0.3000000   0.1000000), wk =   0.0030000
        k(   70) = (   0.0000000   0.3000000   0.1500000), wk =   0.0030000
        k(   71) = (   0.0000000   0.3000000   0.2000000), wk =   0.0030000
        k(   72) = (   0.0000000   0.3000000   0.2500000), wk =   0.0030000
        k(   73) = (   0.0000000   0.3000000   0.3000000), wk =   0.0030000
        k(   74) = (   0.0000000   0.3000000   0.3500000), wk =   0.0030000
        k(   75) = (   0.0000000   0.3000000   0.4000000), wk =   0.0030000
        k(   76) = (   0.0000000   0.3000000   0.4500000), wk =   0.0030000
        k(   77) = (   0.0000000   0.3000000  -0.5000000), wk =   0.0015000
        k(   78) = (   0.0000000   0.3500000   0.0000000), wk =   0.0015000
        k(   79) = (   0.0000000   0.3500000   0.0500000), wk =   0.0030000
        k(   80) = (   0.0000000   0.3500000   0.1000000), wk =   0.0030000
        k(   81) = (   0.0000000   0.3500000   0.1500000), wk =   0.0030000
        k(   82) = (   0.0000000   0.3500000   0.2000000), wk =   0.0030000
        k(   83) = (   0.0000000   0.3500000   0.2500000), wk =   0.0030000
        k(   84) = (   0.0000000   0.3500000   0.3000000), wk =   0.0030000
        k(   85) = (   0.0000000   0.3500000   0.3500000), wk =   0.0030000
        k(   86) = (   0.0000000   0.3500000   0.4000000), wk =   0.0030000
        k(   87) = (   0.0000000   0.3500000   0.4500000), wk =   0.0030000
        k(   88) = (   0.0000000   0.3500000  -0.5000000), wk =   0.0015000
        k(   89) = (   0.0000000   0.4000000   0.0000000), wk =   0.0015000
        k(   90) = (   0.0000000   0.4000000   0.0500000), wk =   0.0030000
        k(   91) = (   0.0000000   0.4000000   0.1000000), wk =   0.0030000
        k(   92) = (   0.0000000   0.4000000   0.1500000), wk =   0.0030000
        k(   93) = (   0.0000000   0.4000000   0.2000000), wk =   0.0030000
        k(   94) = (   0.0000000   0.4000000   0.2500000), wk =   0.0030000
        k(   95) = (   0.0000000   0.4000000   0.3000000), wk =   0.0030000
        k(   96) = (   0.0000000   0.4000000   0.3500000), wk =   0.0030000
        k(   97) = (   0.0000000   0.4000000   0.4000000), wk =   0.0030000
        k(   98) = (   0.0000000   0.4000000   0.4500000), wk =   0.0030000
        k(   99) = (   0.0000000   0.4000000  -0.5000000), wk =   0.0015000
        k(  100) = (   0.0000000   0.4500000   0.0000000), wk =   0.0015000
        k(  101) = (   0.0000000   0.4500000   0.0500000), wk =   0.0030000
        k(  102) = (   0.0000000   0.4500000   0.1000000), wk =   0.0030000
        k(  103) = (   0.0000000   0.4500000   0.1500000), wk =   0.0030000
        k(  104) = (   0.0000000   0.4500000   0.2000000), wk =   0.0030000
        k(  105) = (   0.0000000   0.4500000   0.2500000), wk =   0.0030000
        k(  106) = (   0.0000000   0.4500000   0.3000000), wk =   0.0030000
        k(  107) = (   0.0000000   0.4500000   0.3500000), wk =   0.0030000
        k(  108) = (   0.0000000   0.4500000   0.4000000), wk =   0.0030000
        k(  109) = (   0.0000000   0.4500000   0.4500000), wk =   0.0030000
        k(  110) = (   0.0000000   0.4500000  -0.5000000), wk =   0.0015000
        k(  111) = (   0.0000000  -0.5000000   0.0000000), wk =   0.0007500
        k(  112) = (   0.0000000  -0.5000000   0.0500000), wk =   0.0015000
        k(  113) = (   0.0000000  -0.5000000   0.1000000), wk =   0.0015000
        k(  114) = (   0.0000000  -0.5000000   0.1500000), wk =   0.0015000
        k(  115) = (   0.0000000  -0.5000000   0.2000000), wk =   0.0015000
        k(  116) = (   0.0000000  -0.5000000   0.2500000), wk =   0.0015000
        k(  117) = (   0.0000000  -0.5000000   0.3000000), wk =   0.0015000
        k(  118) = (   0.0000000  -0.5000000   0.3500000), wk =   0.0015000
        k(  119) = (   0.0000000  -0.5000000   0.4000000), wk =   0.0015000
        k(  120) = (   0.0000000  -0.5000000   0.4500000), wk =   0.0015000
        k(  121) = (   0.0000000  -0.5000000  -0.5000000), wk =   0.0007500
        k(  122) = (   0.0500000   0.0500000   0.0000000), wk =   0.0015000
        k(  123) = (   0.0500000   0.0500000   0.0500000), wk =   0.0030000
        k(  124) = (   0.0500000   0.0500000   0.1000000), wk =   0.0030000
        k(  125) = (   0.0500000   0.0500000   0.1500000), wk =   0.0030000
        k(  126) = (   0.0500000   0.0500000   0.2000000), wk =   0.0030000
        k(  127) = (   0.0500000   0.0500000   0.2500000), wk =   0.0030000
        k(  128) = (   0.0500000   0.0500000   0.3000000), wk =   0.0030000
        k(  129) = (   0.0500000   0.0500000   0.3500000), wk =   0.0030000
        k(  130) = (   0.0500000   0.0500000   0.4000000), wk =   0.0030000
        k(  131) = (   0.0500000   0.0500000   0.4500000), wk =   0.0030000
        k(  132) = (   0.0500000   0.0500000  -0.5000000), wk =   0.0015000
        k(  133) = (   0.0500000   0.1000000   0.0000000), wk =   0.0030000
        k(  134) = (   0.0500000   0.1000000   0.0500000), wk =   0.0060000
        k(  135) = (   0.0500000   0.1000000   0.1000000), wk =   0.0060000
        k(  136) = (   0.0500000   0.1000000   0.1500000), wk =   0.0060000
        k(  137) = (   0.0500000   0.1000000   0.2000000), wk =   0.0060000
        k(  138) = (   0.0500000   0.1000000   0.2500000), wk =   0.0060000
        k(  139) = (   0.0500000   0.1000000   0.3000000), wk =   0.0060000
        k(  140) = (   0.0500000   0.1000000   0.3500000), wk =   0.0060000
        k(  141) = (   0.0500000   0.1000000   0.4000000), wk =   0.0060000
        k(  142) = (   0.0500000   0.1000000   0.4500000), wk =   0.0060000
        k(  143) = (   0.0500000   0.1000000  -0.5000000), wk =   0.0030000
        k(  144) = (   0.0500000   0.1500000   0.0000000), wk =   0.0030000
        k(  145) = (   0.0500000   0.1500000   0.0500000), wk =   0.0060000
        k(  146) = (   0.0500000   0.1500000   0.1000000), wk =   0.0060000
        k(  147) = (   0.0500000   0.1500000   0.1500000), wk =   0.0060000
        k(  148) = (   0.0500000   0.1500000   0.2000000), wk =   0.0060000
        k(  149) = (   0.0500000   0.1500000   0.2500000), wk =   0.0060000
        k(  150) = (   0.0500000   0.1500000   0.3000000), wk =   0.0060000
        k(  151) = (   0.0500000   0.1500000   0.3500000), wk =   0.0060000
        k(  152) = (   0.0500000   0.1500000   0.4000000), wk =   0.0060000
        k(  153) = (   0.0500000   0.1500000   0.4500000), wk =   0.0060000
        k(  154) = (   0.0500000   0.1500000  -0.5000000), wk =   0.0030000
        k(  155) = (   0.0500000   0.2000000   0.0000000), wk =   0.0030000
        k(  156) = (   0.0500000   0.2000000   0.0500000), wk =   0.0060000
        k(  157) = (   0.0500000   0.2000000   0.1000000), wk =   0.0060000
        k(  158) = (   0.0500000   0.2000000   0.1500000), wk =   0.0060000
        k(  159) = (   0.0500000   0.2000000   0.2000000), wk =   0.0060000
        k(  160) = (   0.0500000   0.2000000   0.2500000), wk =   0.0060000
        k(  161) = (   0.0500000   0.2000000   0.3000000), wk =   0.0060000
        k(  162) = (   0.0500000   0.2000000   0.3500000), wk =   0.0060000
        k(  163) = (   0.0500000   0.2000000   0.4000000), wk =   0.0060000
        k(  164) = (   0.0500000   0.2000000   0.4500000), wk =   0.0060000
        k(  165) = (   0.0500000   0.2000000  -0.5000000), wk =   0.0030000
        k(  166) = (   0.0500000   0.2500000   0.0000000), wk =   0.0030000
        k(  167) = (   0.0500000   0.2500000   0.0500000), wk =   0.0060000
        k(  168) = (   0.0500000   0.2500000   0.1000000), wk =   0.0060000
        k(  169) = (   0.0500000   0.2500000   0.1500000), wk =   0.0060000
        k(  170) = (   0.0500000   0.2500000   0.2000000), wk =   0.0060000
        k(  171) = (   0.0500000   0.2500000   0.2500000), wk =   0.0060000
        k(  172) = (   0.0500000   0.2500000   0.3000000), wk =   0.0060000
        k(  173) = (   0.0500000   0.2500000   0.3500000), wk =   0.0060000
        k(  174) = (   0.0500000   0.2500000   0.4000000), wk =   0.0060000
        k(  175) = (   0.0500000   0.2500000   0.4500000), wk =   0.0060000
        k(  176) = (   0.0500000   0.2500000  -0.5000000), wk =   0.0030000
        k(  177) = (   0.0500000   0.3000000   0.0000000), wk =   0.0030000
        k(  178) = (   0.0500000   0.3000000   0.0500000), wk =   0.0060000
        k(  179) = (   0.0500000   0.3000000   0.1000000), wk =   0.0060000
        k(  180) = (   0.0500000   0.3000000   0.1500000), wk =   0.0060000
        k(  181) = (   0.0500000   0.3000000   0.2000000), wk =   0.0060000
        k(  182) = (   0.0500000   0.3000000   0.2500000), wk =   0.0060000
        k(  183) = (   0.0500000   0.3000000   0.3000000), wk =   0.0060000
        k(  184) = (   0.0500000   0.3000000   0.3500000), wk =   0.0060000
        k(  185) = (   0.0500000   0.3000000   0.4000000), wk =   0.0060000
        k(  186) = (   0.0500000   0.3000000   0.4500000), wk =   0.0060000
        k(  187) = (   0.0500000   0.3000000  -0.5000000), wk =   0.0030000
        k(  188) = (   0.0500000   0.3500000   0.0000000), wk =   0.0030000
        k(  189) = (   0.0500000   0.3500000   0.0500000), wk =   0.0060000
        k(  190) = (   0.0500000   0.3500000   0.1000000), wk =   0.0060000
        k(  191) = (   0.0500000   0.3500000   0.1500000), wk =   0.0060000
        k(  192) = (   0.0500000   0.3500000   0.2000000), wk =   0.0060000
        k(  193) = (   0.0500000   0.3500000   0.2500000), wk =   0.0060000
        k(  194) = (   0.0500000   0.3500000   0.3000000), wk =   0.0060000
        k(  195) = (   0.0500000   0.3500000   0.3500000), wk =   0.0060000
        k(  196) = (   0.0500000   0.3500000   0.4000000), wk =   0.0060000
        k(  197) = (   0.0500000   0.3500000   0.4500000), wk =   0.0060000
        k(  198) = (   0.0500000   0.3500000  -0.5000000), wk =   0.0030000
        k(  199) = (   0.0500000   0.4000000   0.0000000), wk =   0.0030000
        k(  200) = (   0.0500000   0.4000000   0.0500000), wk =   0.0060000
        k(  201) = (   0.0500000   0.4000000   0.1000000), wk =   0.0060000
        k(  202) = (   0.0500000   0.4000000   0.1500000), wk =   0.0060000
        k(  203) = (   0.0500000   0.4000000   0.2000000), wk =   0.0060000
        k(  204) = (   0.0500000   0.4000000   0.2500000), wk =   0.0060000
        k(  205) = (   0.0500000   0.4000000   0.3000000), wk =   0.0060000
        k(  206) = (   0.0500000   0.4000000   0.3500000), wk =   0.0060000
        k(  207) = (   0.0500000   0.4000000   0.4000000), wk =   0.0060000
        k(  208) = (   0.0500000   0.4000000   0.4500000), wk =   0.0060000
        k(  209) = (   0.0500000   0.4000000  -0.5000000), wk =   0.0030000
        k(  210) = (   0.0500000   0.4500000   0.0000000), wk =   0.0030000
        k(  211) = (   0.0500000   0.4500000   0.0500000), wk =   0.0060000
        k(  212) = (   0.0500000   0.4500000   0.1000000), wk =   0.0060000
        k(  213) = (   0.0500000   0.4500000   0.1500000), wk =   0.0060000
        k(  214) = (   0.0500000   0.4500000   0.2000000), wk =   0.0060000
        k(  215) = (   0.0500000   0.4500000   0.2500000), wk =   0.0060000
        k(  216) = (   0.0500000   0.4500000   0.3000000), wk =   0.0060000
        k(  217) = (   0.0500000   0.4500000   0.3500000), wk =   0.0060000
        k(  218) = (   0.0500000   0.4500000   0.4000000), wk =   0.0060000
        k(  219) = (   0.0500000   0.4500000   0.4500000), wk =   0.0060000
        k(  220) = (   0.0500000   0.4500000  -0.5000000), wk =   0.0030000
        k(  221) = (   0.1000000   0.1000000   0.0000000), wk =   0.0015000
        k(  222) = (   0.1000000   0.1000000   0.0500000), wk =   0.0030000
        k(  223) = (   0.1000000   0.1000000   0.1000000), wk =   0.0030000
        k(  224) = (   0.1000000   0.1000000   0.1500000), wk =   0.0030000
        k(  225) = (   0.1000000   0.1000000   0.2000000), wk =   0.0030000
        k(  226) = (   0.1000000   0.1000000   0.2500000), wk =   0.0030000
        k(  227) = (   0.1000000   0.1000000   0.3000000), wk =   0.0030000
        k(  228) = (   0.1000000   0.1000000   0.3500000), wk =   0.0030000
        k(  229) = (   0.1000000   0.1000000   0.4000000), wk =   0.0030000
        k(  230) = (   0.1000000   0.1000000   0.4500000), wk =   0.0030000
        k(  231) = (   0.1000000   0.1000000  -0.5000000), wk =   0.0015000
        k(  232) = (   0.1000000   0.1500000   0.0000000), wk =   0.0030000
        k(  233) = (   0.1000000   0.1500000   0.0500000), wk =   0.0060000
        k(  234) = (   0.1000000   0.1500000   0.1000000), wk =   0.0060000
        k(  235) = (   0.1000000   0.1500000   0.1500000), wk =   0.0060000
        k(  236) = (   0.1000000   0.1500000   0.2000000), wk =   0.0060000
        k(  237) = (   0.1000000   0.1500000   0.2500000), wk =   0.0060000
        k(  238) = (   0.1000000   0.1500000   0.3000000), wk =   0.0060000
        k(  239) = (   0.1000000   0.1500000   0.3500000), wk =   0.0060000
        k(  240) = (   0.1000000   0.1500000   0.4000000), wk =   0.0060000
        k(  241) = (   0.1000000   0.1500000   0.4500000), wk =   0.0060000
        k(  242) = (   0.1000000   0.1500000  -0.5000000), wk =   0.0030000
        k(  243) = (   0.1000000   0.2000000   0.0000000), wk =   0.0030000
        k(  244) = (   0.1000000   0.2000000   0.0500000), wk =   0.0060000
        k(  245) = (   0.1000000   0.2000000   0.1000000), wk =   0.0060000
        k(  246) = (   0.1000000   0.2000000   0.1500000), wk =   0.0060000
        k(  247) = (   0.1000000   0.2000000   0.2000000), wk =   0.0060000
        k(  248) = (   0.1000000   0.2000000   0.2500000), wk =   0.0060000
        k(  249) = (   0.1000000   0.2000000   0.3000000), wk =   0.0060000
        k(  250) = (   0.1000000   0.2000000   0.3500000), wk =   0.0060000
        k(  251) = (   0.1000000   0.2000000   0.4000000), wk =   0.0060000
        k(  252) = (   0.1000000   0.2000000   0.4500000), wk =   0.0060000
        k(  253) = (   0.1000000   0.2000000  -0.5000000), wk =   0.0030000
        k(  254) = (   0.1000000   0.2500000   0.0000000), wk =   0.0030000
        k(  255) = (   0.1000000   0.2500000   0.0500000), wk =   0.0060000
        k(  256) = (   0.1000000   0.2500000   0.1000000), wk =   0.0060000
        k(  257) = (   0.1000000   0.2500000   0.1500000), wk =   0.0060000
        k(  258) = (   0.1000000   0.2500000   0.2000000), wk =   0.0060000
        k(  259) = (   0.1000000   0.2500000   0.2500000), wk =   0.0060000
        k(  260) = (   0.1000000   0.2500000   0.3000000), wk =   0.0060000
        k(  261) = (   0.1000000   0.2500000   0.3500000), wk =   0.0060000
        k(  262) = (   0.1000000   0.2500000   0.4000000), wk =   0.0060000
        k(  263) = (   0.1000000   0.2500000   0.4500000), wk =   0.0060000
        k(  264) = (   0.1000000   0.2500000  -0.5000000), wk =   0.0030000
        k(  265) = (   0.1000000   0.3000000   0.0000000), wk =   0.0030000
        k(  266) = (   0.1000000   0.3000000   0.0500000), wk =   0.0060000
        k(  267) = (   0.1000000   0.3000000   0.1000000), wk =   0.0060000
        k(  268) = (   0.1000000   0.3000000   0.1500000), wk =   0.0060000
        k(  269) = (   0.1000000   0.3000000   0.2000000), wk =   0.0060000
        k(  270) = (   0.1000000   0.3000000   0.2500000), wk =   0.0060000
        k(  271) = (   0.1000000   0.3000000   0.3000000), wk =   0.0060000
        k(  272) = (   0.1000000   0.3000000   0.3500000), wk =   0.0060000
        k(  273) = (   0.1000000   0.3000000   0.4000000), wk =   0.0060000
        k(  274) = (   0.1000000   0.3000000   0.4500000), wk =   0.0060000
        k(  275) = (   0.1000000   0.3000000  -0.5000000), wk =   0.0030000
        k(  276) = (   0.1000000   0.3500000   0.0000000), wk =   0.0030000
        k(  277) = (   0.1000000   0.3500000   0.0500000), wk =   0.0060000
        k(  278) = (   0.1000000   0.3500000   0.1000000), wk =   0.0060000
        k(  279) = (   0.1000000   0.3500000   0.1500000), wk =   0.0060000
        k(  280) = (   0.1000000   0.3500000   0.2000000), wk =   0.0060000
        k(  281) = (   0.1000000   0.3500000   0.2500000), wk =   0.0060000
        k(  282) = (   0.1000000   0.3500000   0.3000000), wk =   0.0060000
        k(  283) = (   0.1000000   0.3500000   0.3500000), wk =   0.0060000
        k(  284) = (   0.1000000   0.3500000   0.4000000), wk =   0.0060000
        k(  285) = (   0.1000000   0.3500000   0.4500000), wk =   0.0060000
        k(  286) = (   0.1000000   0.3500000  -0.5000000), wk =   0.0030000
        k(  287) = (   0.1000000   0.4000000   0.0000000), wk =   0.0030000
        k(  288) = (   0.1000000   0.4000000   0.0500000), wk =   0.0060000
        k(  289) = (   0.1000000   0.4000000   0.1000000), wk =   0.0060000
        k(  290) = (   0.1000000   0.4000000   0.1500000), wk =   0.0060000
        k(  291) = (   0.1000000   0.4000000   0.2000000), wk =   0.0060000
        k(  292) = (   0.1000000   0.4000000   0.2500000), wk =   0.0060000
        k(  293) = (   0.1000000   0.4000000   0.3000000), wk =   0.0060000
        k(  294) = (   0.1000000   0.4000000   0.3500000), wk =   0.0060000
        k(  295) = (   0.1000000   0.4000000   0.4000000), wk =   0.0060000
        k(  296) = (   0.1000000   0.4000000   0.4500000), wk =   0.0060000
        k(  297) = (   0.1000000   0.4000000  -0.5000000), wk =   0.0030000
        k(  298) = (   0.1000000   0.4500000   0.0000000), wk =   0.0015000
        k(  299) = (   0.1000000   0.4500000   0.0500000), wk =   0.0030000
        k(  300) = (   0.1000000   0.4500000   0.1000000), wk =   0.0030000
        k(  301) = (   0.1000000   0.4500000   0.1500000), wk =   0.0030000
        k(  302) = (   0.1000000   0.4500000   0.2000000), wk =   0.0030000
        k(  303) = (   0.1000000   0.4500000   0.2500000), wk =   0.0030000
        k(  304) = (   0.1000000   0.4500000   0.3000000), wk =   0.0030000
        k(  305) = (   0.1000000   0.4500000   0.3500000), wk =   0.0030000
        k(  306) = (   0.1000000   0.4500000   0.4000000), wk =   0.0030000
        k(  307) = (   0.1000000   0.4500000   0.4500000), wk =   0.0030000
        k(  308) = (   0.1000000   0.4500000  -0.5000000), wk =   0.0015000
        k(  309) = (   0.1500000   0.1500000   0.0000000), wk =   0.0015000
        k(  310) = (   0.1500000   0.1500000   0.0500000), wk =   0.0030000
        k(  311) = (   0.1500000   0.1500000   0.1000000), wk =   0.0030000
        k(  312) = (   0.1500000   0.1500000   0.1500000), wk =   0.0030000
        k(  313) = (   0.1500000   0.1500000   0.2000000), wk =   0.0030000
        k(  314) = (   0.1500000   0.1500000   0.2500000), wk =   0.0030000
        k(  315) = (   0.1500000   0.1500000   0.3000000), wk =   0.0030000
        k(  316) = (   0.1500000   0.1500000   0.3500000), wk =   0.0030000
        k(  317) = (   0.1500000   0.1500000   0.4000000), wk =   0.0030000
        k(  318) = (   0.1500000   0.1500000   0.4500000), wk =   0.0030000
        k(  319) = (   0.1500000   0.1500000  -0.5000000), wk =   0.0015000
        k(  320) = (   0.1500000   0.2000000   0.0000000), wk =   0.0030000
        k(  321) = (   0.1500000   0.2000000   0.0500000), wk =   0.0060000
        k(  322) = (   0.1500000   0.2000000   0.1000000), wk =   0.0060000
        k(  323) = (   0.1500000   0.2000000   0.1500000), wk =   0.0060000
        k(  324) = (   0.1500000   0.2000000   0.2000000), wk =   0.0060000
        k(  325) = (   0.1500000   0.2000000   0.2500000), wk =   0.0060000
        k(  326) = (   0.1500000   0.2000000   0.3000000), wk =   0.0060000
        k(  327) = (   0.1500000   0.2000000   0.3500000), wk =   0.0060000
        k(  328) = (   0.1500000   0.2000000   0.4000000), wk =   0.0060000
        k(  329) = (   0.1500000   0.2000000   0.4500000), wk =   0.0060000
        k(  330) = (   0.1500000   0.2000000  -0.5000000), wk =   0.0030000
        k(  331) = (   0.1500000   0.2500000   0.0000000), wk =   0.0030000
        k(  332) = (   0.1500000   0.2500000   0.0500000), wk =   0.0060000
        k(  333) = (   0.1500000   0.2500000   0.1000000), wk =   0.0060000
        k(  334) = (   0.1500000   0.2500000   0.1500000), wk =   0.0060000
        k(  335) = (   0.1500000   0.2500000   0.2000000), wk =   0.0060000
        k(  336) = (   0.1500000   0.2500000   0.2500000), wk =   0.0060000
        k(  337) = (   0.1500000   0.2500000   0.3000000), wk =   0.0060000
        k(  338) = (   0.1500000   0.2500000   0.3500000), wk =   0.0060000
        k(  339) = (   0.1500000   0.2500000   0.4000000), wk =   0.0060000
        k(  340) = (   0.1500000   0.2500000   0.4500000), wk =   0.0060000
        k(  341) = (   0.1500000   0.2500000  -0.5000000), wk =   0.0030000
        k(  342) = (   0.1500000   0.3000000   0.0000000), wk =   0.0030000
        k(  343) = (   0.1500000   0.3000000   0.0500000), wk =   0.0060000
        k(  344) = (   0.1500000   0.3000000   0.1000000), wk =   0.0060000
        k(  345) = (   0.1500000   0.3000000   0.1500000), wk =   0.0060000
        k(  346) = (   0.1500000   0.3000000   0.2000000), wk =   0.0060000
        k(  347) = (   0.1500000   0.3000000   0.2500000), wk =   0.0060000
        k(  348) = (   0.1500000   0.3000000   0.3000000), wk =   0.0060000
        k(  349) = (   0.1500000   0.3000000   0.3500000), wk =   0.0060000
        k(  350) = (   0.1500000   0.3000000   0.4000000), wk =   0.0060000
        k(  351) = (   0.1500000   0.3000000   0.4500000), wk =   0.0060000
        k(  352) = (   0.1500000   0.3000000  -0.5000000), wk =   0.0030000
        k(  353) = (   0.1500000   0.3500000   0.0000000), wk =   0.0030000
        k(  354) = (   0.1500000   0.3500000   0.0500000), wk =   0.0060000
        k(  355) = (   0.1500000   0.3500000   0.1000000), wk =   0.0060000
        k(  356) = (   0.1500000   0.3500000   0.1500000), wk =   0.0060000
        k(  357) = (   0.1500000   0.3500000   0.2000000), wk =   0.0060000
        k(  358) = (   0.1500000   0.3500000   0.2500000), wk =   0.0060000
        k(  359) = (   0.1500000   0.3500000   0.3000000), wk =   0.0060000
        k(  360) = (   0.1500000   0.3500000   0.3500000), wk =   0.0060000
        k(  361) = (   0.1500000   0.3500000   0.4000000), wk =   0.0060000
        k(  362) = (   0.1500000   0.3500000   0.4500000), wk =   0.0060000
        k(  363) = (   0.1500000   0.3500000  -0.5000000), wk =   0.0030000
        k(  364) = (   0.1500000   0.4000000   0.0000000), wk =   0.0030000
        k(  365) = (   0.1500000   0.4000000   0.0500000), wk =   0.0060000
        k(  366) = (   0.1500000   0.4000000   0.1000000), wk =   0.0060000
        k(  367) = (   0.1500000   0.4000000   0.1500000), wk =   0.0060000
        k(  368) = (   0.1500000   0.4000000   0.2000000), wk =   0.0060000
        k(  369) = (   0.1500000   0.4000000   0.2500000), wk =   0.0060000
        k(  370) = (   0.1500000   0.4000000   0.3000000), wk =   0.0060000
        k(  371) = (   0.1500000   0.4000000   0.3500000), wk =   0.0060000
        k(  372) = (   0.1500000   0.4000000   0.4000000), wk =   0.0060000
        k(  373) = (   0.1500000   0.4000000   0.4500000), wk =   0.0060000
        k(  374) = (   0.1500000   0.4000000  -0.5000000), wk =   0.0030000
        k(  375) = (   0.2000000   0.2000000   0.0000000), wk =   0.0015000
        k(  376) = (   0.2000000   0.2000000   0.0500000), wk =   0.0030000
        k(  377) = (   0.2000000   0.2000000   0.1000000), wk =   0.0030000
        k(  378) = (   0.2000000   0.2000000   0.1500000), wk =   0.0030000
        k(  379) = (   0.2000000   0.2000000   0.2000000), wk =   0.0030000
        k(  380) = (   0.2000000   0.2000000   0.2500000), wk =   0.0030000
        k(  381) = (   0.2000000   0.2000000   0.3000000), wk =   0.0030000
        k(  382) = (   0.2000000   0.2000000   0.3500000), wk =   0.0030000
        k(  383) = (   0.2000000   0.2000000   0.4000000), wk =   0.0030000
        k(  384) = (   0.2000000   0.2000000   0.4500000), wk =   0.0030000
        k(  385) = (   0.2000000   0.2000000  -0.5000000), wk =   0.0015000
        k(  386) = (   0.2000000   0.2500000   0.0000000), wk =   0.0030000
        k(  387) = (   0.2000000   0.2500000   0.0500000), wk =   0.0060000
        k(  388) = (   0.2000000   0.2500000   0.1000000), wk =   0.0060000
        k(  389) = (   0.2000000   0.2500000   0.1500000), wk =   0.0060000
        k(  390) = (   0.2000000   0.2500000   0.2000000), wk =   0.0060000
        k(  391) = (   0.2000000   0.2500000   0.2500000), wk =   0.0060000
        k(  392) = (   0.2000000   0.2500000   0.3000000), wk =   0.0060000
        k(  393) = (   0.2000000   0.2500000   0.3500000), wk =   0.0060000
        k(  394) = (   0.2000000   0.2500000   0.4000000), wk =   0.0060000
        k(  395) = (   0.2000000   0.2500000   0.4500000), wk =   0.0060000
        k(  396) = (   0.2000000   0.2500000  -0.5000000), wk =   0.0030000
        k(  397) = (   0.2000000   0.3000000   0.0000000), wk =   0.0030000
        k(  398) = (   0.2000000   0.3000000   0.0500000), wk =   0.0060000
        k(  399) = (   0.2000000   0.3000000   0.1000000), wk =   0.0060000
        k(  400) = (   0.2000000   0.3000000   0.1500000), wk =   0.0060000
        k(  401) = (   0.2000000   0.3000000   0.2000000), wk =   0.0060000
        k(  402) = (   0.2000000   0.3000000   0.2500000), wk =   0.0060000
        k(  403) = (   0.2000000   0.3000000   0.3000000), wk =   0.0060000
        k(  404) = (   0.2000000   0.3000000   0.3500000), wk =   0.0060000
        k(  405) = (   0.2000000   0.3000000   0.4000000), wk =   0.0060000
        k(  406) = (   0.2000000   0.3000000   0.4500000), wk =   0.0060000
        k(  407) = (   0.2000000   0.3000000  -0.5000000), wk =   0.0030000
        k(  408) = (   0.2000000   0.3500000   0.0000000), wk =   0.0030000
        k(  409) = (   0.2000000   0.3500000   0.0500000), wk =   0.0060000
        k(  410) = (   0.2000000   0.3500000   0.1000000), wk =   0.0060000
        k(  411) = (   0.2000000   0.3500000   0.1500000), wk =   0.0060000
        k(  412) = (   0.2000000   0.3500000   0.2000000), wk =   0.0060000
        k(  413) = (   0.2000000   0.3500000   0.2500000), wk =   0.0060000
[...]
     1.0000   1.0000   1.0000   1.0000   1.0000   1.0000   1.0000   1.0000
     1.0000   1.0000   1.0000   1.0000   1.0000   1.0000   1.0000   1.0000
     1.0000   1.0000

          k = 0.2500 0.4907 0.1844 (  5212 PWs)   bands (ev):

    -4.3632  -4.3111  -2.8723  -2.8213  -2.7884  -2.7388  -2.6912  -2.6753
    -2.6359  -2.6195  -1.2129  -0.7999   4.5015   4.9098   6.3630   7.6407
     8.1659   9.1014

     occupation numbers 
     1.0000   1.0000   1.0000   1.0000   1.0000   1.0000   1.0000   1.0000
     1.0000   1.0000   1.0000   1.0000   1.0000   1.0000   1.0000   1.0000
     1.0000   1.0000

          k = 0.2500 0.4907 0.2151 (  5209 PWs)   bands (ev):

    -4.3504  -4.3103  -2.8568  -2.8263  -2.7988  -2.7475  -2.6913  -2.6794
    -2.6335  -2.6179  -1.1716  -0.8518   4.4659   4.7917   6.4750   7.4696
     8.4380   9.1883

     occupation numbers 
     1.0000   1.0000   1.0000   1.0000   1.0000   1.0000   1.0000   1.0000
     1.0000   1.0000   1.0000   1.0000   1.0000   1.0000   1.0000   1.0000
     1.0000   1.0000

          k = 0.2500 0.4907 0.2459 (  5207 PWs)   bands (ev):

    -4.3385  -4.3113  -2.8423  -2.8288  -2.8056  -2.7596  -2.6914  -2.6842
    -2.6292  -2.6176  -1.1250  -0.9069   4.4574   4.6838   6.6098   7.2885
     8.6923   9.2178

     occupation numbers 
     1.0000   1.0000   1.0000   1.0000   1.0000   1.0000   1.0000   1.0000
     1.0000   1.0000   1.0000   1.0000   1.0000   1.0000   1.0000   1.0000
     1.0000   1.0000

          k = 0.2500 0.4907 0.2766 (  5207 PWs)   bands (ev):

    -4.3283  -4.3145  -2.8339  -2.8290  -2.8034  -2.7745  -2.6910  -2.6877
    -2.6248  -2.6187  -1.0740  -0.9635   4.4765   4.5924   6.7628   7.1067
     8.9101   9.1811

     occupation numbers 
     1.0000   1.0000   1.0000   1.0000   1.0000   1.0000   1.0000   1.0000
     1.0000   1.0000   1.0000   1.0000   1.0000   1.0000   1.0000   1.0000
     1.0000   1.0000

          k = 0.2500 0.4907-0.3073 (  5210 PWs)   bands (ev):

    -4.3202  -4.3202  -2.8308  -2.8308  -2.7905  -2.7905  -2.6899  -2.6899
    -2.6212  -2.6212  -1.0197  -1.0197   4.5222   4.5222   6.9299   6.9299
     9.0767   9.0767

     occupation numbers 
     1.0000   1.0000   1.0000   1.0000   1.0000   1.0000   1.0000   1.0000
     1.0000   1.0000   1.0000   1.0000   1.0000   1.0000   1.0000   1.0000
     1.0000   1.0000

          k = 0.2500 0.5485 0.0000 (  5202 PWs)   bands (ev):

    -4.3889  -4.3279  -2.9268  -2.7747  -2.7221  -2.7146  -2.7072  -2.6912
    -2.6460  -2.6077  -1.1114  -0.7234   4.8404   5.4238   5.9009   7.1964
     8.0729   8.1954

     occupation numbers 
     1.0000   1.0000   1.0000   1.0000   1.0000   1.0000   1.0000   1.0000
     1.0000   1.0000   1.0000   1.0000   1.0000   1.0000   1.0000   1.0000
     1.0000   1.0000

          k = 0.2500 0.5485 0.0307 (  5201 PWs)   bands (ev):

    -4.3874  -4.3272  -2.9253  -2.7771  -2.7261  -2.7136  -2.7091  -2.6857
    -2.6457  -2.6092  -1.1092  -0.7257   4.8220   5.3979   5.8987   7.2448
     8.0849   8.2004

     occupation numbers 
     1.0000   1.0000   1.0000   1.0000   1.0000   1.0000   1.0000   1.0000
     1.0000   1.0000   1.0000   1.0000   1.0000   1.0000   1.0000   1.0000
     1.0000   1.0000

          k = 0.2500 0.5485 0.0615 (  5203 PWs)   bands (ev):

    -4.3831  -4.3251  -2.9206  -2.7833  -2.7367  -2.7149  -2.7057  -2.6767
    -2.6447  -2.6136  -1.1029  -0.7326   4.7702   5.3245   5.9002   7.3801
     8.0564   8.2738

     occupation numbers 
     1.0000   1.0000   1.0000   1.0000   1.0000   1.0000   1.0000   1.0000
     1.0000   1.0000   1.0000   1.0000   1.0000   1.0000   1.0000   1.0000
     1.0000   1.0000

          k = 0.2500 0.5485 0.0922 (  5201 PWs)   bands (ev):

    -4.3762  -4.3220  -2.9130  -2.7915  -2.7503  -2.7170  -2.6996  -2.6686
    -2.6429  -2.6204  -1.0924  -0.7440   4.6949   5.2144   5.9206   7.5786
     7.9672   8.4211

     occupation numbers 
     1.0000   1.0000   1.0000   1.0000   1.0000   1.0000   1.0000   1.0000
     1.0000   1.0000   1.0000   1.0000   1.0000   1.0000   1.0000   1.0000
     1.0000   1.0000

          k = 0.2500 0.5485 0.1229 (  5203 PWs)   bands (ev):

    -4.3673  -4.3182  -2.9026  -2.8002  -2.7646  -2.7199  -2.6935  -2.6624
    -2.6405  -2.6283  -1.0778  -0.7597   4.6098   5.0820   5.9687   7.7880
     7.8705   8.6004

     occupation numbers 
     1.0000   1.0000   1.0000   1.0000   1.0000   1.0000   1.0000   1.0000
     1.0000   1.0000   1.0000   1.0000   1.0000   1.0000   1.0000   1.0000
     1.0000   1.0000

          k = 0.2500 0.5485 0.1537 (  5201 PWs)   bands (ev):

    -4.3570  -4.3143  -2.8896  -2.8084  -2.7787  -2.7245  -2.6884  -2.6592
    -2.6396  -2.6333  -1.0594  -0.7797   4.5279   4.9413   6.0458   7.6755
     8.0899   8.7846

     occupation numbers 
     1.0000   1.0000   1.0000   1.0000   1.0000   1.0000   1.0000   1.0000
     1.0000   1.0000   1.0000   1.0000   1.0000   1.0000   1.0000   1.0000
     1.0000   1.0000

          k = 0.2500 0.5485 0.1844 (  5207 PWs)   bands (ev):

    -4.3462  -4.3108  -2.8746  -2.8153  -2.7918  -2.7319  -2.6845  -2.6608
    -2.6408  -2.6320  -1.0373  -0.8034   4.4595   4.8039   6.1491   7.5045
     8.3522   8.9518

     occupation numbers 
     1.0000   1.0000   1.0000   1.0000   1.0000   1.0000   1.0000   1.0000
     1.0000   1.0000   1.0000   1.0000   1.0000   1.0000   1.0000   1.0000
     1.0000   1.0000

          k = 0.2500 0.5485 0.2151 (  5210 PWs)   bands (ev):

    -4.3357  -4.3083  -2.8583  -2.8200  -2.8034  -2.7428  -2.6817  -2.6658
    -2.6388  -2.6300  -1.0119  -0.8303   4.4118   4.6783   6.2754   7.3207
     8.6025   9.0827

     occupation numbers 
     1.0000   1.0000   1.0000   1.0000   1.0000   1.0000   1.0000   1.0000
     1.0000   1.0000   1.0000   1.0000   1.0000   1.0000   1.0000   1.0000
     1.0000   1.0000

          k = 0.2500 0.5485 0.2459 (  5206 PWs)   bands (ev):

    -4.3261  -4.3075  -2.8428  -2.8212  -2.8121  -2.7572  -2.6798  -2.6705
    -2.6356  -2.6289  -0.9838  -0.8597   4.3890   4.5708   6.4213   7.1315
     8.8240   9.1612

     occupation numbers 
     1.0000   1.0000   1.0000   1.0000   1.0000   1.0000   1.0000   1.0000
     1.0000   1.0000   1.0000   1.0000   1.0000   1.0000   1.0000   1.0000
     1.0000   1.0000

          k = 0.2500 0.5485 0.2766 (  5215 PWs)   bands (ev):

    -4.3181  -4.3088  -2.8332  -2.8233  -2.8085  -2.7742  -2.6781  -2.6740
    -2.6325  -2.6289  -0.9537  -0.8907   4.3935   4.4857   6.5834   6.9425
     9.0014   9.1757

     occupation numbers 
     1.0000   1.0000   1.0000   1.0000   1.0000   1.0000   1.0000   1.0000
     1.0000   1.0000   1.0000   1.0000   1.0000   1.0000   1.0000   1.0000
     1.0000   1.0000

          k = 0.2500 0.5485-0.3073 (  5204 PWs)   bands (ev):

    -4.3123  -4.3123  -2.8283  -2.8283  -2.7923  -2.7923  -2.6763  -2.6763
    -2.6302  -2.6302  -0.9224  -0.9224   4.4260   4.4260   6.7584   6.7584
     9.1216   9.1216

     occupation numbers 
     1.0000   1.0000   1.0000   1.0000   1.0000   1.0000   1.0000   1.0000
     1.0000   1.0000   1.0000   1.0000   1.0000   1.0000   1.0000   1.0000
     1.0000   1.0000

          k = 0.3000 0.5196 0.0000 (  5202 PWs)   bands (ev):

    -4.3799  -4.3317  -2.9300  -2.7549  -2.7239  -2.7209  -2.7072  -2.6946
    -2.6497  -2.6108  -1.0904  -0.7097   5.0922   5.2179   5.8158   7.2412
     8.0436   8.0658

     occupation numbers 
     1.0000   1.0000   1.0000   1.0000   1.0000   1.0000   1.0000   1.0000
     1.0000   1.0000   1.0000   1.0000   1.0000   1.0000   1.0000   1.0000
     1.0000   1.0000

          k = 0.3000 0.5196 0.0307 (  5205 PWs)   bands (ev):

    -4.3785  -4.3309  -2.9284  -2.7586  -2.7284  -2.7207  -2.7041  -2.6917
    -2.6492  -2.6125  -1.0882  -0.7119   5.0637   5.2097   5.8058   7.2892
     8.0221   8.1048

     occupation numbers 
     1.0000   1.0000   1.0000   1.0000   1.0000   1.0000   1.0000   1.0000
     1.0000   1.0000   1.0000   1.0000   1.0000   1.0000   1.0000   1.0000
     1.0000   1.0000

          k = 0.3000 0.5196 0.0615 (  5214 PWs)   bands (ev):

    -4.3744  -4.3286  -2.9237  -2.7674  -2.7386  -2.7208  -2.6966  -2.6864
    -2.6474  -2.6172  -1.0818  -0.7186   4.9872   5.1800   5.7874   7.4229
     7.9598   8.2135

     occupation numbers 
     1.0000   1.0000   1.0000   1.0000   1.0000   1.0000   1.0000   1.0000
     1.0000   1.0000   1.0000   1.0000   1.0000   1.0000   1.0000   1.0000
     1.0000   1.0000

          k = 0.3000 0.5196 0.0922 (  5203 PWs)   bands (ev):

    -4.3679  -4.3251  -2.9159  -2.7780  -2.7509  -2.7217  -2.6875  -2.6820
    -2.6446  -2.6246  -1.0713  -0.7296   4.8828   5.1194   5.7863   7.6143
     7.8663   8.3724

     occupation numbers 
     1.0000   1.0000   1.0000   1.0000   1.0000   1.0000   1.0000   1.0000
     1.0000   1.0000   1.0000   1.0000   1.0000   1.0000   1.0000   1.0000
     1.0000   1.0000

          k = 0.3000 0.5196 0.1229 (  5203 PWs)   bands (ev):

    -4.3596  -4.3209  -2.9053  -2.7889  -2.7639  -2.7237  -2.6793  -2.6788
    -2.6409  -2.6335  -1.0567  -0.7449   4.7704   5.0274   5.8201   7.6943
     7.8925   8.5582

     occupation numbers 
     1.0000   1.0000   1.0000   1.0000   1.0000   1.0000   1.0000   1.0000
     1.0000   1.0000   1.0000   1.0000   1.0000   1.0000   1.0000   1.0000
     1.0000   1.0000

          k = 0.3000 0.5196 0.1537 (  5211 PWs)   bands (ev):

    -4.3500  -4.3163  -2.8920  -2.7990  -2.7766  -2.7276  -2.6781  -2.6720
    -2.6419  -2.6372  -1.0382  -0.7642   4.6651   4.9158   5.8908   7.5495
     8.1380   8.7484

     occupation numbers 
     1.0000   1.0000   1.0000   1.0000   1.0000   1.0000   1.0000   1.0000
     1.0000   1.0000   1.0000   1.0000   1.0000   1.0000   1.0000   1.0000
     1.0000   1.0000

          k = 0.3000 0.5196 0.1844 (  5201 PWs)   bands (ev):

    -4.3400  -4.3121  -2.8765  -2.8078  -2.7884  -2.7342  -2.6779  -2.6699
    -2.6458  -2.6340  -1.0162  -0.7871   4.5767   4.7998   5.9929   7.3747
     8.3970   8.9225

     occupation numbers 
     1.0000   1.0000   1.0000   1.0000   1.0000   1.0000   1.0000   1.0000
     1.0000   1.0000   1.0000   1.0000   1.0000   1.0000   1.0000   1.0000
     1.0000   1.0000

          k = 0.3000 0.5196 0.2151 (  5201 PWs)   bands (ev):

    -4.3304  -4.3089  -2.8591  -2.8146  -2.7986  -2.7448  -2.6782  -2.6728
    -2.6438  -2.6317  -0.9910  -0.8132   4.5115   4.6912   6.1205   7.1870
     8.6422   9.0620

     occupation numbers 
     1.0000   1.0000   1.0000   1.0000   1.0000   1.0000   1.0000   1.0000
     1.0000   1.0000   1.0000   1.0000   1.0000   1.0000   1.0000   1.0000
     1.0000   1.0000

          k = 0.3000 0.5196 0.2459 (  5195 PWs)   bands (ev):

    -4.3218  -4.3072  -2.8409  -2.8193  -2.8063  -2.7592  -2.6788  -2.6763
    -2.6396  -2.6307  -0.9633  -0.8418   4.4730   4.5986   6.2690   6.9938
     8.8567   9.1507

     occupation numbers 
     1.0000   1.0000   1.0000   1.0000   1.0000   1.0000   1.0000   1.0000
     1.0000   1.0000   1.0000   1.0000   1.0000   1.0000   1.0000   1.0000
     1.0000   1.0000

          k = 0.3000 0.5196 0.2766 (  5202 PWs)   bands (ev):

    -4.3148  -4.3075  -2.8255  -2.8215  -2.8080  -2.7766  -2.6793  -2.6784
    -2.6356  -2.6310  -0.9336  -0.8720   4.4629   4.5274   6.4344   6.8009
     9.0249   9.1767

     occupation numbers 
     1.0000   1.0000   1.0000   1.0000   1.0000   1.0000   1.0000   1.0000
     1.0000   1.0000   1.0000   1.0000   1.0000   1.0000   1.0000   1.0000
     1.0000   1.0000

          k = 0.3000 0.5196-0.3073 (  5186 PWs)   bands (ev):

    -4.3100  -4.3100  -2.8219  -2.8219  -2.7949  -2.7949  -2.6793  -2.6793
    -2.6327  -2.6327  -0.9029  -0.9029   4.4814   4.4814   6.6130   6.6130
     9.1343   9.1343

     occupation numbers 
     1.0000   1.0000   1.0000   1.0000   1.0000   1.0000   1.0000   1.0000
     1.0000   1.0000   1.0000   1.0000   1.0000   1.0000   1.0000   1.0000
     1.0000   1.0000

          k = 0.3000 0.5774 0.0000 (  5208 PWs)   bands (ev):

    -4.3630  -4.3400  -2.9325  -2.7455  -2.7212  -2.7170  -2.7058  -2.6976
    -2.6568  -2.6121  -0.9463  -0.7941   5.1063   5.3848   5.5037   7.4804
     7.8324   7.9587

     occupation numbers 
     1.0000   1.0000   1.0000   1.0000   1.0000   1.0000   1.0000   1.0000
     1.0000   1.0000   1.0000   1.0000   1.0000   1.0000   1.0000   1.0000
     1.0000   1.0000

          k = 0.3000 0.5774 0.0307 (  5204 PWs)   bands (ev):

    -4.3618  -4.3391  -2.9309  -2.7494  -2.7276  -2.7170  -2.7024  -2.6921
    -2.6569  -2.6138  -0.9453  -0.7947   5.0872   5.3549   5.5057   7.5263
     7.8674   7.9431

     occupation numbers 
     1.0000   1.0000   1.0000   1.0000   1.0000   1.0000   1.0000   1.0000
     1.0000   1.0000   1.0000   1.0000   1.0000   1.0000   1.0000   1.0000
     1.0000   1.0000

          k = 0.3000 0.5774 0.0615 (  5204 PWs)   bands (ev):

    -4.3583  -4.3364  -2.9261  -2.7585  -2.7397  -2.7174  -2.6949  -2.6823
    -2.6570  -2.6187  -0.9420  -0.7966   5.0294   5.2727   5.5207   7.6547
     7.8575   8.0043

     occupation numbers 
     1.0000   1.0000   1.0000   1.0000   1.0000   1.0000   1.0000   1.0000
     1.0000   1.0000   1.0000   1.0000   1.0000   1.0000   1.0000   1.0000
     1.0000   1.0000

          k = 0.3000 0.5774 0.0922 (  5197 PWs)   bands (ev):

    -4.3527  -4.3322  -2.9182  -2.7695  -2.7531  -2.7186  -2.6865  -2.6725
    -2.6571  -2.6264  -0.9368  -0.7999   4.9387   5.1554   5.5613   7.7571
     7.8442   8.1721

     occupation numbers 
     1.0000   1.0000   1.0000   1.0000   1.0000   1.0000   1.0000   1.0000
     1.0000   1.0000   1.0000   1.0000   1.0000   1.0000   1.0000   1.0000
     1.0000   1.0000

          k = 0.3000 0.5774 0.1229 (  5197 PWs)   bands (ev):

    -4.3455  -4.3270  -2.9074  -2.7807  -2.7666  -2.7208  -2.6791  -2.6640
    -2.6566  -2.6359  -0.9296  -0.8045   4.8309   5.0216   5.6305   7.6210
     8.0709   8.3744

     occupation numbers 
     1.0000   1.0000   1.0000   1.0000   1.0000   1.0000   1.0000   1.0000
     1.0000   1.0000   1.0000   1.0000   1.0000   1.0000   1.0000   1.0000
     1.0000   1.0000

          k = 0.3000 0.5774 0.1537 (  5209 PWs)   bands (ev):

    -4.3374  -4.3213  -2.8939  -2.7913  -2.7794  -2.7250  -2.6739  -2.6576
    -2.6550  -2.6453  -0.9207  -0.8106   4.7223   4.8863   5.7261   7.4586
     8.3135   8.5865

     occupation numbers 
     1.0000   1.0000   1.0000   1.0000   1.0000   1.0000   1.0000   1.0000
     1.0000   1.0000   1.0000   1.0000   1.0000   1.0000   1.0000   1.0000
     1.0000   1.0000

          k = 0.3000 0.5774 0.1844 (  5205 PWs)   bands (ev):

    -4.3291  -4.3157  -2.8780  -2.8006  -2.7911  -2.7324  -2.6714  -2.6590
    -2.6517  -2.6475  -0.9103  -0.8181   4.6252   4.7605   5.8450   7.2779
     8.5532   8.7880

     occupation numbers 
     1.0000   1.0000   1.0000   1.0000   1.0000   1.0000   1.0000   1.0000
     1.0000   1.0000   1.0000   1.0000   1.0000   1.0000   1.0000   1.0000
     1.0000   1.0000

          k = 0.3000 0.5774 0.2151 (  5200 PWs)   bands (ev):

    -4.3212  -4.3109  -2.8601  -2.8081  -2.8011  -2.7439  -2.6709  -2.6652
    -2.6478  -2.6441  -0.8987  -0.8271   4.5475   4.6518   5.9842   7.0856
     8.7726   8.9604

     occupation numbers 
     1.0000   1.0000   1.0000   1.0000   1.0000   1.0000   1.0000   1.0000
     1.0000   1.0000   1.0000   1.0000   1.0000   1.0000   1.0000   1.0000
     1.0000   1.0000

          k = 0.3000 0.5774 0.2459 (  5207 PWs)   bands (ev):

    -4.3145  -4.3075  -2.8409  -2.8132  -2.8091  -2.7593  -2.6713  -2.6694
    -2.6442  -2.6413  -0.8864  -0.8374   4.4944   4.5653   6.1413   6.8880
     8.9552   9.0871

     occupation numbers 
     1.0000   1.0000   1.0000   1.0000   1.0000   1.0000   1.0000   1.0000
     1.0000   1.0000   1.0000   1.0000   1.0000   1.0000   1.0000   1.0000
     1.0000   1.0000

          k = 0.3000 0.5774 0.2766 (  5207 PWs)   bands (ev):

    -4.3095  -4.3059  -2.8228  -2.8147  -2.8135  -2.7778  -2.6718  -2.6715
    -2.6415  -2.6400  -0.8737  -0.8488   4.4689   4.5048   6.3134   6.6905
     9.0864   9.1545

     occupation numbers 
     1.0000   1.0000   1.0000   1.0000   1.0000   1.0000   1.0000   1.0000
     1.0000   1.0000   1.0000   1.0000   1.0000   1.0000   1.0000   1.0000
     1.0000   1.0000

          k = 0.3000 0.5774-0.3073 (  5204 PWs)   bands (ev):

    -4.3066  -4.3066  -2.8179  -2.8179  -2.7976  -2.7976  -2.6721  -2.6721
    -2.6401  -2.6401  -0.8610  -0.8610   4.4723   4.4723   6.4976   6.4976
     9.1547   9.1547

     occupation numbers 
     1.0000   1.0000   1.0000   1.0000   1.0000   1.0000   1.0000   1.0000
     1.0000   1.0000   1.0000   1.0000   1.0000   1.0000   1.0000   1.0000
     1.0000   1.0000

     highest occupied level (ev):    10.6180

!    total energy              =    -347.51817649 Ry
     estimated scf accuracy    <       0.00000005 Ry

     The total energy is the sum of the following terms:
     one-electron contribution =    -105.67147516 Ry
     hartree contribution      =      87.58895582 Ry
     xc contribution           =     -96.27883025 Ry
     ewald contribution        =    -233.15682690 Ry

     convergence has been achieved in  21 iterations

     Writing output data file ../tmp/GaN_exc1.save/
 
     init_run     :      3.46s CPU      3.59s WALL (       1 calls)
     electrons    :    143.81s CPU    146.99s WALL (       1 calls)

     Called by init_run:
     wfcinit      :      3.11s CPU      3.20s WALL (       1 calls)
     wfcinit:atom :      0.07s CPU      0.07s WALL (     484 calls)
     wfcinit:wfcr :      2.57s CPU      2.63s WALL (     484 calls)
     potinit      :      0.07s CPU      0.07s WALL (       1 calls)
     hinit0       :      0.19s CPU      0.22s WALL (       1 calls)

     Called by electrons:
     c_bands      :    126.98s CPU    129.70s WALL (      21 calls)
     sum_band     :     16.66s CPU     17.11s WALL (      21 calls)
     v_of_rho     :      0.13s CPU      0.14s WALL (      22 calls)
     v_h          :      0.00s CPU      0.00s WALL (      22 calls)
     v_xc         :      0.13s CPU      0.13s WALL (      22 calls)
     mix_rho      :      0.04s CPU      0.04s WALL (      21 calls)

     Called by c_bands:
     init_us_2    :      4.67s CPU      4.80s WALL (   20812 calls)
     cegterg      :    108.05s CPU    110.57s WALL (   10164 calls)

     Called by sum_band:
     sum_band:wei :      0.00s CPU      0.00s WALL (      21 calls)
     sum_band:loo :     16.63s CPU     17.08s WALL (      21 calls)
     sum_band:buf :      0.37s CPU      0.38s WALL (   10164 calls)
     sum_band:ini :      2.23s CPU      2.29s WALL (   10164 calls)

     Called by *egterg:
     cdiaghg      :     17.76s CPU     18.06s WALL (   31615 calls)
     cegterg:over :      6.40s CPU      6.57s WALL (   21451 calls)
     cegterg:upda :      2.63s CPU      2.68s WALL (   21451 calls)
     cegterg:last :      3.31s CPU      3.36s WALL (   17593 calls)
     cdiaghg:chol :      1.36s CPU      1.39s WALL (   31615 calls)
     cdiaghg:inve :      0.38s CPU      0.39s WALL (   31615 calls)
     cdiaghg:para :      1.87s CPU      1.89s WALL (   63230 calls)
     h_psi        :     76.47s CPU     78.45s WALL (   32099 calls)
     g_psi        :      0.75s CPU      0.76s WALL (   21451 calls)

     Called by h_psi:
     h_psi:calbec :      4.31s CPU      4.44s WALL (   32099 calls)
     vloc_psi     :     68.23s CPU     69.98s WALL (   32099 calls)
     add_vuspsi   :      3.18s CPU      3.29s WALL (   32099 calls)

     General routines
     calbec       :      4.23s CPU      4.37s WALL (   32099 calls)
     fft          :      0.08s CPU      0.11s WALL (     220 calls)
     ffts         :      0.00s CPU      0.00s WALL (      21 calls)
     fftw         :     69.55s CPU     71.35s WALL ( 1109470 calls)
 
     Parallel routines
 
     PWSCF        :   2m27.97s CPU   2m32.08s WALL

 
   This run was terminated on:  18:29:52  27Mar2023            

=------------------------------------------------------------------------------=
   JOB DONE.
=------------------------------------------------------------------------------=
