
     Program PWSCF v.6.8 starts on 27Mar2023 at 18:36:30 

     This program is part of the open-source Quantum ESPRESSO suite
     for quantum simulation of materials; please cite
         "P. Giannozzi et al., J. Phys.:Condens. Matter 21 395502 (2009);
         "P. Giannozzi et al., J. Phys.:Condens. Matter 29 465901 (2017);
         "P. Giannozzi et al., J. Chem. Phys. 152 154105 (2020);
          URL http://www.quantum-espresso.org", 
     in publications or presentations arising from this work. More details at
     http://www.quantum-espresso.org/quote

     Parallel version (MPI & OpenMP), running on       6 processor cores
     Number of MPI processes:                 6
     Threads/MPI process:                     1

     MPI processes distributed on     1 nodes
     R & G space division:  proc/nbgrp/npool/nimage =       6
     5254 MiB available memory on the printing compute node when the environment starts
 
     Waiting for input...
     Reading input from standard input
Warning: card &CELL ignored
Warning: card / ignored

     Current dimensions of program PWSCF are:
     Max number of different atomic species (ntypx) = 10
     Max number of k-points (npk) =  40000
     Max angular momentum in pseudopotentials (lmaxx) =  4

     Subspace diagonalization in iterative solution of the eigenvalue problem:
     one sub-group per band group will be used
     scalapack distributed-memory algorithm (size of sub-group:  2*  2 procs)

 
     Parallelization info
     --------------------
     sticks:   dense  smooth     PW     G-vecs:    dense   smooth      PW
     Min         500     500    137                36132    36132    5123
     Max         501     501    138                36141    36141    5126
     Sum        3001    3001    823               216805   216805   30747
 
     Using Slab Decomposition
 


     bravais-lattice index     =            4
     lattice parameter (alat)  =       6.0282  a.u.
     unit-cell volume          =     308.6570 (a.u.)^3
     number of atoms/cell      =            4
     number of atomic types    =            2
     number of electrons       =        36.00
     number of Kohn-Sham states=           18
     kinetic-energy cutoff     =     300.0000  Ry
     charge density cutoff     =    1200.0000  Ry
     scf convergence threshold =      1.0E-06
     mixing beta               =       0.7000
     number of iterations used =            8  plain     mixing
     Exchange-correlation= PBE
                           (   1   4   3   4   0   0   0)

     celldm(1)=   6.028226  celldm(2)=   0.000000  celldm(3)=   1.626960
     celldm(4)=   0.000000  celldm(5)=   0.000000  celldm(6)=   0.000000

     crystal axes: (cart. coord. in units of alat)
               a(1) = (   1.000000   0.000000   0.000000 )  
               a(2) = (  -0.500000   0.866025   0.000000 )  
               a(3) = (   0.000000   0.000000   1.626960 )  

     reciprocal axes: (cart. coord. in units 2 pi/alat)
               b(1) = (  1.000000  0.577350  0.000000 )  
               b(2) = (  0.000000  1.154701  0.000000 )  
               b(3) = (  0.000000  0.000000  0.614643 )  


     PseudoPot. # 1 for Ga read from file:
     ../pseudo/Ga_ONCV_PBE_sr.upf
     MD5 check sum: e3654b1fbeb096be7359f640ef9d98d7
     Pseudo is Norm-conserving + core correction, Zval = 13.0
     Generated using ONCVPSP code by D. R. Hamann
     Using radial grid of 1902 points,  6 beta functions with: 
                l(1) =   0
                l(2) =   0
                l(3) =   1
                l(4) =   1
                l(5) =   2
                l(6) =   2

     PseudoPot. # 2 for N  read from file:
     ../pseudo/N_ONCV_PBE_sr.upf
     MD5 check sum: 18c6af81dac9c5a2d6d52ed11cf7bfee
     Pseudo is Norm-conserving + core correction, Zval =  5.0
     Generated using ONCVPSP code by D. R. Hamann
     Using radial grid of 1058 points,  4 beta functions with: 
                l(1) =   0
                l(2) =   0
                l(3) =   1
                l(4) =   1

     atomic species   valence    mass     pseudopotential
        Ga            13.00    69.72300     Ga( 1.00)
        N              5.00    14.00700     N ( 1.00)

     12 Sym. Ops. (no inversion) found ( 6 have fractional translation)


                                    s                        frac. trans.

      isym =  1     identity                                     

 cryst.   s( 1) = (     1          0          0      )
                  (     0          1          0      )
                  (     0          0          1      )

 cart.    s( 1) = (  1.0000000  0.0000000  0.0000000 )
                  (  0.0000000  1.0000000  0.0000000 )
                  (  0.0000000  0.0000000  1.0000000 )


      isym =  2     180 deg rotation - cart. axis [0,0,1]        

 cryst.   s( 2) = (    -1          0          0      )    f =(  0.0000000 )
                  (     0         -1          0      )       (  0.0000000 )
                  (     0          0          1      )       ( -0.5000000 )

 cart.    s( 2) = ( -1.0000000  0.0000000  0.0000000 )    f =(  0.0000000 )
                  (  0.0000000 -1.0000000  0.0000000 )       (  0.0000000 )
                  (  0.0000000  0.0000000  1.0000000 )       ( -0.8134800 )


      isym =  3      60 deg rotation - cryst. axis [0,0,1]       

 cryst.   s( 3) = (     1          1          0      )    f =(  0.0000000 )
                  (    -1          0          0      )       (  0.0000000 )
                  (     0          0          1      )       ( -0.5000000 )

 cart.    s( 3) = (  0.5000000 -0.8660254  0.0000000 )    f =(  0.0000000 )
                  (  0.8660254  0.5000000  0.0000000 )       (  0.0000000 )
                  (  0.0000000  0.0000000  1.0000000 )       ( -0.8134800 )


      isym =  4      60 deg rotation - cryst. axis [0,0,-1]      

 cryst.   s( 4) = (     0         -1          0      )    f =(  0.0000000 )
                  (     1          1          0      )       (  0.0000000 )
                  (     0          0          1      )       ( -0.5000000 )

 cart.    s( 4) = (  0.5000000  0.8660254  0.0000000 )    f =(  0.0000000 )
                  ( -0.8660254  0.5000000  0.0000000 )       (  0.0000000 )
                  (  0.0000000  0.0000000  1.0000000 )       ( -0.8134800 )


      isym =  5     120 deg rotation - cryst. axis [0,0,1]       

 cryst.   s( 5) = (     0          1          0      )
                  (    -1         -1          0      )
                  (     0          0          1      )

 cart.    s( 5) = ( -0.5000000 -0.8660254  0.0000000 )
                  (  0.8660254 -0.5000000  0.0000000 )
                  (  0.0000000  0.0000000  1.0000000 )


      isym =  6     120 deg rotation - cryst. axis [0,0,-1]      

 cryst.   s( 6) = (    -1         -1          0      )
                  (     1          0          0      )
                  (     0          0          1      )

 cart.    s( 6) = ( -0.5000000  0.8660254  0.0000000 )
                  ( -0.8660254 -0.5000000  0.0000000 )
                  (  0.0000000  0.0000000  1.0000000 )


      isym =  7     inv. 180 deg rotation - cart. axis [0,1,0]   

 cryst.   s( 7) = (     1          0          0      )    f =(  0.0000000 )
                  (    -1         -1          0      )       (  0.0000000 )
                  (     0          0          1      )       ( -0.5000000 )

 cart.    s( 7) = (  1.0000000  0.0000000  0.0000000 )    f =(  0.0000000 )
                  (  0.0000000 -1.0000000  0.0000000 )       (  0.0000000 )
                  (  0.0000000  0.0000000  1.0000000 )       ( -0.8134800 )


      isym =  8     inv. 180 deg rotation - cart. axis [1,0,0]   

 cryst.   s( 8) = (    -1          0          0      )
                  (     1          1          0      )
                  (     0          0          1      )

 cart.    s( 8) = ( -1.0000000  0.0000000  0.0000000 )
                  (  0.0000000  1.0000000  0.0000000 )
                  (  0.0000000  0.0000000  1.0000000 )


      isym =  9     inv. 180 deg rotation - cryst. axis [1,-1,0] 

 cryst.   s( 9) = (     0          1          0      )    f =(  0.0000000 )
                  (     1          0          0      )       (  0.0000000 )
                  (     0          0          1      )       ( -0.5000000 )

 cart.    s( 9) = ( -0.5000000  0.8660254  0.0000000 )    f =(  0.0000000 )
                  (  0.8660254  0.5000000  0.0000000 )       (  0.0000000 )
                  (  0.0000000  0.0000000  1.0000000 )       ( -0.8134800 )


      isym = 10     inv. 180 deg rotation - cryst. axis [2,1,0]  

 cryst.   s(10) = (    -1         -1          0      )    f =(  0.0000000 )
                  (     0          1          0      )       (  0.0000000 )
                  (     0          0          1      )       ( -0.5000000 )

 cart.    s(10) = ( -0.5000000 -0.8660254  0.0000000 )    f =(  0.0000000 )
                  ( -0.8660254  0.5000000  0.0000000 )       (  0.0000000 )
                  (  0.0000000  0.0000000  1.0000000 )       ( -0.8134800 )


      isym = 11     inv. 180 deg rotation - cryst. axis [0,1,0]  

 cryst.   s(11) = (     1          1          0      )
                  (     0         -1          0      )
                  (     0          0          1      )

 cart.    s(11) = (  0.5000000  0.8660254  0.0000000 )
                  (  0.8660254 -0.5000000  0.0000000 )
                  (  0.0000000  0.0000000  1.0000000 )


      isym = 12     inv. 180 deg rotation - cryst. axis [1,1,0]  

 cryst.   s(12) = (     0         -1          0      )
                  (    -1          0          0      )
                  (     0          0          1      )

 cart.    s(12) = (  0.5000000 -0.8660254  0.0000000 )
                  ( -0.8660254 -0.5000000  0.0000000 )
                  (  0.0000000  0.0000000  1.0000000 )


     point group C_6v (6mm) 
     there are  6 classes
     the character table:

       E     2C6   2C3   C2    3s_v  3s_d 
A_1    1.00  1.00  1.00  1.00  1.00  1.00
A_2    1.00  1.00  1.00  1.00 -1.00 -1.00
B_1    1.00 -1.00  1.00 -1.00  1.00 -1.00
B_2    1.00 -1.00  1.00 -1.00 -1.00  1.00
E_1    2.00  1.00 -1.00 -2.00  0.00  0.00
E_2    2.00 -1.00 -1.00  2.00  0.00  0.00

     the symmetry operations in each class and the name of the first element:

     E        1
          identity                                               
     2C6      3    4
           60 deg rotation - cryst. axis [0,0,1]                 
     2C3      5    6
          120 deg rotation - cryst. axis [0,0,1]                 
     C2       2
          180 deg rotation - cart. axis [0,0,1]                  
     3s_v     8   12   11
          inv. 180 deg rotation - cart. axis [1,0,0]             
     3s_d     7    9   10
          inv. 180 deg rotation - cart. axis [0,1,0]             

   Cartesian axes

     site n.     atom                  positions (alat units)
         1           Ga  tau(   1) = (   0.5000000   0.2886751   0.8119892  )
         2           Ga  tau(   2) = (   0.0000000   0.5773503   1.6254692  )
         3           N   tau(   3) = (   0.5000000   0.2886751   1.4250808  )
         4           N   tau(   4) = (   0.0000000   0.5773503   0.6116008  )

   Crystallographic axes

     site n.     atom                  positions (cryst. coord.)
         1           Ga  tau(   1) = (  0.6666667  0.3333333  0.4990837  )
         2           Ga  tau(   2) = (  0.3333333  0.6666667  0.9990837  )
         3           N   tau(   3) = (  0.6666667  0.3333333  0.8759163  )
         4           N   tau(   4) = (  0.3333333  0.6666667  0.3759163  )

     number of k points=   484
                       cart. coord. in units 2pi/alat
        k(    1) = (   0.0000000   0.0000000   0.0000000), wk =   0.0002500
        k(    2) = (   0.0000000   0.0000000   0.0307322), wk =   0.0005000
        k(    3) = (   0.0000000   0.0000000   0.0614643), wk =   0.0005000
        k(    4) = (   0.0000000   0.0000000   0.0921965), wk =   0.0005000
        k(    5) = (   0.0000000   0.0000000   0.1229287), wk =   0.0005000
        k(    6) = (   0.0000000   0.0000000   0.1536608), wk =   0.0005000
        k(    7) = (   0.0000000   0.0000000   0.1843930), wk =   0.0005000
        k(    8) = (   0.0000000   0.0000000   0.2151251), wk =   0.0005000
        k(    9) = (   0.0000000   0.0000000   0.2458573), wk =   0.0005000
        k(   10) = (   0.0000000   0.0000000   0.2765895), wk =   0.0005000
        k(   11) = (   0.0000000   0.0000000  -0.3073216), wk =   0.0002500
        k(   12) = (   0.0000000   0.0577350   0.0000000), wk =   0.0015000
        k(   13) = (   0.0000000   0.0577350   0.0307322), wk =   0.0030000
        k(   14) = (   0.0000000   0.0577350   0.0614643), wk =   0.0030000
        k(   15) = (   0.0000000   0.0577350   0.0921965), wk =   0.0030000
        k(   16) = (   0.0000000   0.0577350   0.1229287), wk =   0.0030000
        k(   17) = (   0.0000000   0.0577350   0.1536608), wk =   0.0030000
        k(   18) = (   0.0000000   0.0577350   0.1843930), wk =   0.0030000
        k(   19) = (   0.0000000   0.0577350   0.2151251), wk =   0.0030000
        k(   20) = (   0.0000000   0.0577350   0.2458573), wk =   0.0030000
        k(   21) = (   0.0000000   0.0577350   0.2765895), wk =   0.0030000
        k(   22) = (   0.0000000   0.0577350  -0.3073216), wk =   0.0015000
        k(   23) = (   0.0000000   0.1154701   0.0000000), wk =   0.0015000
        k(   24) = (   0.0000000   0.1154701   0.0307322), wk =   0.0030000
        k(   25) = (   0.0000000   0.1154701   0.0614643), wk =   0.0030000
        k(   26) = (   0.0000000   0.1154701   0.0921965), wk =   0.0030000
        k(   27) = (   0.0000000   0.1154701   0.1229287), wk =   0.0030000
        k(   28) = (   0.0000000   0.1154701   0.1536608), wk =   0.0030000
        k(   29) = (   0.0000000   0.1154701   0.1843930), wk =   0.0030000
        k(   30) = (   0.0000000   0.1154701   0.2151251), wk =   0.0030000
        k(   31) = (   0.0000000   0.1154701   0.2458573), wk =   0.0030000
        k(   32) = (   0.0000000   0.1154701   0.2765895), wk =   0.0030000
        k(   33) = (   0.0000000   0.1154701  -0.3073216), wk =   0.0015000
        k(   34) = (   0.0000000   0.1732051   0.0000000), wk =   0.0015000
        k(   35) = (   0.0000000   0.1732051   0.0307322), wk =   0.0030000
        k(   36) = (   0.0000000   0.1732051   0.0614643), wk =   0.0030000
        k(   37) = (   0.0000000   0.1732051   0.0921965), wk =   0.0030000
        k(   38) = (   0.0000000   0.1732051   0.1229287), wk =   0.0030000
        k(   39) = (   0.0000000   0.1732051   0.1536608), wk =   0.0030000
        k(   40) = (   0.0000000   0.1732051   0.1843930), wk =   0.0030000
        k(   41) = (   0.0000000   0.1732051   0.2151251), wk =   0.0030000
        k(   42) = (   0.0000000   0.1732051   0.2458573), wk =   0.0030000
        k(   43) = (   0.0000000   0.1732051   0.2765895), wk =   0.0030000
        k(   44) = (   0.0000000   0.1732051  -0.3073216), wk =   0.0015000
        k(   45) = (   0.0000000   0.2309401   0.0000000), wk =   0.0015000
        k(   46) = (   0.0000000   0.2309401   0.0307322), wk =   0.0030000
        k(   47) = (   0.0000000   0.2309401   0.0614643), wk =   0.0030000
        k(   48) = (   0.0000000   0.2309401   0.0921965), wk =   0.0030000
        k(   49) = (   0.0000000   0.2309401   0.1229287), wk =   0.0030000
        k(   50) = (   0.0000000   0.2309401   0.1536608), wk =   0.0030000
        k(   51) = (   0.0000000   0.2309401   0.1843930), wk =   0.0030000
        k(   52) = (   0.0000000   0.2309401   0.2151251), wk =   0.0030000
        k(   53) = (   0.0000000   0.2309401   0.2458573), wk =   0.0030000
        k(   54) = (   0.0000000   0.2309401   0.2765895), wk =   0.0030000
        k(   55) = (   0.0000000   0.2309401  -0.3073216), wk =   0.0015000
        k(   56) = (   0.0000000   0.2886751   0.0000000), wk =   0.0015000
        k(   57) = (   0.0000000   0.2886751   0.0307322), wk =   0.0030000
        k(   58) = (   0.0000000   0.2886751   0.0614643), wk =   0.0030000
        k(   59) = (   0.0000000   0.2886751   0.0921965), wk =   0.0030000
        k(   60) = (   0.0000000   0.2886751   0.1229287), wk =   0.0030000
        k(   61) = (   0.0000000   0.2886751   0.1536608), wk =   0.0030000
        k(   62) = (   0.0000000   0.2886751   0.1843930), wk =   0.0030000
        k(   63) = (   0.0000000   0.2886751   0.2151251), wk =   0.0030000
        k(   64) = (   0.0000000   0.2886751   0.2458573), wk =   0.0030000
        k(   65) = (   0.0000000   0.2886751   0.2765895), wk =   0.0030000
        k(   66) = (   0.0000000   0.2886751  -0.3073216), wk =   0.0015000
        k(   67) = (   0.0000000   0.3464102   0.0000000), wk =   0.0015000
        k(   68) = (   0.0000000   0.3464102   0.0307322), wk =   0.0030000
        k(   69) = (   0.0000000   0.3464102   0.0614643), wk =   0.0030000
        k(   70) = (   0.0000000   0.3464102   0.0921965), wk =   0.0030000
        k(   71) = (   0.0000000   0.3464102   0.1229287), wk =   0.0030000
        k(   72) = (   0.0000000   0.3464102   0.1536608), wk =   0.0030000
        k(   73) = (   0.0000000   0.3464102   0.1843930), wk =   0.0030000
        k(   74) = (   0.0000000   0.3464102   0.2151251), wk =   0.0030000
        k(   75) = (   0.0000000   0.3464102   0.2458573), wk =   0.0030000
        k(   76) = (   0.0000000   0.3464102   0.2765895), wk =   0.0030000
        k(   77) = (   0.0000000   0.3464102  -0.3073216), wk =   0.0015000
        k(   78) = (   0.0000000   0.4041452   0.0000000), wk =   0.0015000
        k(   79) = (   0.0000000   0.4041452   0.0307322), wk =   0.0030000
        k(   80) = (   0.0000000   0.4041452   0.0614643), wk =   0.0030000
        k(   81) = (   0.0000000   0.4041452   0.0921965), wk =   0.0030000
        k(   82) = (   0.0000000   0.4041452   0.1229287), wk =   0.0030000
        k(   83) = (   0.0000000   0.4041452   0.1536608), wk =   0.0030000
        k(   84) = (   0.0000000   0.4041452   0.1843930), wk =   0.0030000
        k(   85) = (   0.0000000   0.4041452   0.2151251), wk =   0.0030000
        k(   86) = (   0.0000000   0.4041452   0.2458573), wk =   0.0030000
        k(   87) = (   0.0000000   0.4041452   0.2765895), wk =   0.0030000
        k(   88) = (   0.0000000   0.4041452  -0.3073216), wk =   0.0015000
        k(   89) = (   0.0000000   0.4618802   0.0000000), wk =   0.0015000
        k(   90) = (   0.0000000   0.4618802   0.0307322), wk =   0.0030000
        k(   91) = (   0.0000000   0.4618802   0.0614643), wk =   0.0030000
        k(   92) = (   0.0000000   0.4618802   0.0921965), wk =   0.0030000
        k(   93) = (   0.0000000   0.4618802   0.1229287), wk =   0.0030000
        k(   94) = (   0.0000000   0.4618802   0.1536608), wk =   0.0030000
        k(   95) = (   0.0000000   0.4618802   0.1843930), wk =   0.0030000
        k(   96) = (   0.0000000   0.4618802   0.2151251), wk =   0.0030000
        k(   97) = (   0.0000000   0.4618802   0.2458573), wk =   0.0030000
        k(   98) = (   0.0000000   0.4618802   0.2765895), wk =   0.0030000
        k(   99) = (   0.0000000   0.4618802  -0.3073216), wk =   0.0015000
        k(  100) = (   0.0000000   0.5196152   0.0000000), wk =   0.0015000
        k(  101) = (   0.0000000   0.5196152   0.0307322), wk =   0.0030000
        k(  102) = (   0.0000000   0.5196152   0.0614643), wk =   0.0030000
        k(  103) = (   0.0000000   0.5196152   0.0921965), wk =   0.0030000
        k(  104) = (   0.0000000   0.5196152   0.1229287), wk =   0.0030000
        k(  105) = (   0.0000000   0.5196152   0.1536608), wk =   0.0030000
        k(  106) = (   0.0000000   0.5196152   0.1843930), wk =   0.0030000
        k(  107) = (   0.0000000   0.5196152   0.2151251), wk =   0.0030000
        k(  108) = (   0.0000000   0.5196152   0.2458573), wk =   0.0030000
        k(  109) = (   0.0000000   0.5196152   0.2765895), wk =   0.0030000
        k(  110) = (   0.0000000   0.5196152  -0.3073216), wk =   0.0015000
        k(  111) = (   0.0000000  -0.5773503   0.0000000), wk =   0.0007500
        k(  112) = (   0.0000000  -0.5773503   0.0307322), wk =   0.0015000
        k(  113) = (   0.0000000  -0.5773503   0.0614643), wk =   0.0015000
        k(  114) = (   0.0000000  -0.5773503   0.0921965), wk =   0.0015000
        k(  115) = (   0.0000000  -0.5773503   0.1229287), wk =   0.0015000
        k(  116) = (   0.0000000  -0.5773503   0.1536608), wk =   0.0015000
        k(  117) = (   0.0000000  -0.5773503   0.1843930), wk =   0.0015000
        k(  118) = (   0.0000000  -0.5773503   0.2151251), wk =   0.0015000
        k(  119) = (   0.0000000  -0.5773503   0.2458573), wk =   0.0015000
        k(  120) = (   0.0000000  -0.5773503   0.2765895), wk =   0.0015000
        k(  121) = (   0.0000000  -0.5773503  -0.3073216), wk =   0.0007500
        k(  122) = (   0.0500000   0.0866025   0.0000000), wk =   0.0015000
        k(  123) = (   0.0500000   0.0866025   0.0307322), wk =   0.0030000
        k(  124) = (   0.0500000   0.0866025   0.0614643), wk =   0.0030000
        k(  125) = (   0.0500000   0.0866025   0.0921965), wk =   0.0030000
        k(  126) = (   0.0500000   0.0866025   0.1229287), wk =   0.0030000
        k(  127) = (   0.0500000   0.0866025   0.1536608), wk =   0.0030000
        k(  128) = (   0.0500000   0.0866025   0.1843930), wk =   0.0030000
        k(  129) = (   0.0500000   0.0866025   0.2151251), wk =   0.0030000
        k(  130) = (   0.0500000   0.0866025   0.2458573), wk =   0.0030000
        k(  131) = (   0.0500000   0.0866025   0.2765895), wk =   0.0030000
        k(  132) = (   0.0500000   0.0866025  -0.3073216), wk =   0.0015000
        k(  133) = (   0.0500000   0.1443376   0.0000000), wk =   0.0030000
        k(  134) = (   0.0500000   0.1443376   0.0307322), wk =   0.0060000
        k(  135) = (   0.0500000   0.1443376   0.0614643), wk =   0.0060000
        k(  136) = (   0.0500000   0.1443376   0.0921965), wk =   0.0060000
        k(  137) = (   0.0500000   0.1443376   0.1229287), wk =   0.0060000
        k(  138) = (   0.0500000   0.1443376   0.1536608), wk =   0.0060000
        k(  139) = (   0.0500000   0.1443376   0.1843930), wk =   0.0060000
        k(  140) = (   0.0500000   0.1443376   0.2151251), wk =   0.0060000
        k(  141) = (   0.0500000   0.1443376   0.2458573), wk =   0.0060000
        k(  142) = (   0.0500000   0.1443376   0.2765895), wk =   0.0060000
        k(  143) = (   0.0500000   0.1443376  -0.3073216), wk =   0.0030000
        k(  144) = (   0.0500000   0.2020726   0.0000000), wk =   0.0030000
        k(  145) = (   0.0500000   0.2020726   0.0307322), wk =   0.0060000
        k(  146) = (   0.0500000   0.2020726   0.0614643), wk =   0.0060000
        k(  147) = (   0.0500000   0.2020726   0.0921965), wk =   0.0060000
        k(  148) = (   0.0500000   0.2020726   0.1229287), wk =   0.0060000
        k(  149) = (   0.0500000   0.2020726   0.1536608), wk =   0.0060000
        k(  150) = (   0.0500000   0.2020726   0.1843930), wk =   0.0060000
        k(  151) = (   0.0500000   0.2020726   0.2151251), wk =   0.0060000
        k(  152) = (   0.0500000   0.2020726   0.2458573), wk =   0.0060000
        k(  153) = (   0.0500000   0.2020726   0.2765895), wk =   0.0060000
        k(  154) = (   0.0500000   0.2020726  -0.3073216), wk =   0.0030000
        k(  155) = (   0.0500000   0.2598076   0.0000000), wk =   0.0030000
        k(  156) = (   0.0500000   0.2598076   0.0307322), wk =   0.0060000
        k(  157) = (   0.0500000   0.2598076   0.0614643), wk =   0.0060000
        k(  158) = (   0.0500000   0.2598076   0.0921965), wk =   0.0060000
        k(  159) = (   0.0500000   0.2598076   0.1229287), wk =   0.0060000
        k(  160) = (   0.0500000   0.2598076   0.1536608), wk =   0.0060000
        k(  161) = (   0.0500000   0.2598076   0.1843930), wk =   0.0060000
        k(  162) = (   0.0500000   0.2598076   0.2151251), wk =   0.0060000
        k(  163) = (   0.0500000   0.2598076   0.2458573), wk =   0.0060000
        k(  164) = (   0.0500000   0.2598076   0.2765895), wk =   0.0060000
        k(  165) = (   0.0500000   0.2598076  -0.3073216), wk =   0.0030000
        k(  166) = (   0.0500000   0.3175426   0.0000000), wk =   0.0030000
        k(  167) = (   0.0500000   0.3175426   0.0307322), wk =   0.0060000
        k(  168) = (   0.0500000   0.3175426   0.0614643), wk =   0.0060000
        k(  169) = (   0.0500000   0.3175426   0.0921965), wk =   0.0060000
        k(  170) = (   0.0500000   0.3175426   0.1229287), wk =   0.0060000
        k(  171) = (   0.0500000   0.3175426   0.1536608), wk =   0.0060000
        k(  172) = (   0.0500000   0.3175426   0.1843930), wk =   0.0060000
        k(  173) = (   0.0500000   0.3175426   0.2151251), wk =   0.0060000
        k(  174) = (   0.0500000   0.3175426   0.2458573), wk =   0.0060000
        k(  175) = (   0.0500000   0.3175426   0.2765895), wk =   0.0060000
        k(  176) = (   0.0500000   0.3175426  -0.3073216), wk =   0.0030000
        k(  177) = (   0.0500000   0.3752777   0.0000000), wk =   0.0030000
        k(  178) = (   0.0500000   0.3752777   0.0307322), wk =   0.0060000
        k(  179) = (   0.0500000   0.3752777   0.0614643), wk =   0.0060000
        k(  180) = (   0.0500000   0.3752777   0.0921965), wk =   0.0060000
        k(  181) = (   0.0500000   0.3752777   0.1229287), wk =   0.0060000
        k(  182) = (   0.0500000   0.3752777   0.1536608), wk =   0.0060000
        k(  183) = (   0.0500000   0.3752777   0.1843930), wk =   0.0060000
        k(  184) = (   0.0500000   0.3752777   0.2151251), wk =   0.0060000
        k(  185) = (   0.0500000   0.3752777   0.2458573), wk =   0.0060000
        k(  186) = (   0.0500000   0.3752777   0.2765895), wk =   0.0060000
        k(  187) = (   0.0500000   0.3752777  -0.3073216), wk =   0.0030000
        k(  188) = (   0.0500000   0.4330127   0.0000000), wk =   0.0030000
        k(  189) = (   0.0500000   0.4330127   0.0307322), wk =   0.0060000
        k(  190) = (   0.0500000   0.4330127   0.0614643), wk =   0.0060000
        k(  191) = (   0.0500000   0.4330127   0.0921965), wk =   0.0060000
        k(  192) = (   0.0500000   0.4330127   0.1229287), wk =   0.0060000
        k(  193) = (   0.0500000   0.4330127   0.1536608), wk =   0.0060000
        k(  194) = (   0.0500000   0.4330127   0.1843930), wk =   0.0060000
        k(  195) = (   0.0500000   0.4330127   0.2151251), wk =   0.0060000
        k(  196) = (   0.0500000   0.4330127   0.2458573), wk =   0.0060000
        k(  197) = (   0.0500000   0.4330127   0.2765895), wk =   0.0060000
        k(  198) = (   0.0500000   0.4330127  -0.3073216), wk =   0.0030000
        k(  199) = (   0.0500000   0.4907477   0.0000000), wk =   0.0030000
        k(  200) = (   0.0500000   0.4907477   0.0307322), wk =   0.0060000
        k(  201) = (   0.0500000   0.4907477   0.0614643), wk =   0.0060000
        k(  202) = (   0.0500000   0.4907477   0.0921965), wk =   0.0060000
        k(  203) = (   0.0500000   0.4907477   0.1229287), wk =   0.0060000
        k(  204) = (   0.0500000   0.4907477   0.1536608), wk =   0.0060000
        k(  205) = (   0.0500000   0.4907477   0.1843930), wk =   0.0060000
        k(  206) = (   0.0500000   0.4907477   0.2151251), wk =   0.0060000
        k(  207) = (   0.0500000   0.4907477   0.2458573), wk =   0.0060000
        k(  208) = (   0.0500000   0.4907477   0.2765895), wk =   0.0060000
        k(  209) = (   0.0500000   0.4907477  -0.3073216), wk =   0.0030000
        k(  210) = (   0.0500000   0.5484828   0.0000000), wk =   0.0030000
        k(  211) = (   0.0500000   0.5484828   0.0307322), wk =   0.0060000
        k(  212) = (   0.0500000   0.5484828   0.0614643), wk =   0.0060000
        k(  213) = (   0.0500000   0.5484828   0.0921965), wk =   0.0060000
        k(  214) = (   0.0500000   0.5484828   0.1229287), wk =   0.0060000
        k(  215) = (   0.0500000   0.5484828   0.1536608), wk =   0.0060000
        k(  216) = (   0.0500000   0.5484828   0.1843930), wk =   0.0060000
        k(  217) = (   0.0500000   0.5484828   0.2151251), wk =   0.0060000
        k(  218) = (   0.0500000   0.5484828   0.2458573), wk =   0.0060000
        k(  219) = (   0.0500000   0.5484828   0.2765895), wk =   0.0060000
        k(  220) = (   0.0500000   0.5484828  -0.3073216), wk =   0.0030000
        k(  221) = (   0.1000000   0.1732051   0.0000000), wk =   0.0015000
        k(  222) = (   0.1000000   0.1732051   0.0307322), wk =   0.0030000
        k(  223) = (   0.1000000   0.1732051   0.0614643), wk =   0.0030000
        k(  224) = (   0.1000000   0.1732051   0.0921965), wk =   0.0030000
        k(  225) = (   0.1000000   0.1732051   0.1229287), wk =   0.0030000
        k(  226) = (   0.1000000   0.1732051   0.1536608), wk =   0.0030000
        k(  227) = (   0.1000000   0.1732051   0.1843930), wk =   0.0030000
        k(  228) = (   0.1000000   0.1732051   0.2151251), wk =   0.0030000
        k(  229) = (   0.1000000   0.1732051   0.2458573), wk =   0.0030000
        k(  230) = (   0.1000000   0.1732051   0.2765895), wk =   0.0030000
        k(  231) = (   0.1000000   0.1732051  -0.3073216), wk =   0.0015000
        k(  232) = (   0.1000000   0.2309401   0.0000000), wk =   0.0030000
        k(  233) = (   0.1000000   0.2309401   0.0307322), wk =   0.0060000
        k(  234) = (   0.1000000   0.2309401   0.0614643), wk =   0.0060000
        k(  235) = (   0.1000000   0.2309401   0.0921965), wk =   0.0060000
        k(  236) = (   0.1000000   0.2309401   0.1229287), wk =   0.0060000
        k(  237) = (   0.1000000   0.2309401   0.1536608), wk =   0.0060000
        k(  238) = (   0.1000000   0.2309401   0.1843930), wk =   0.0060000
        k(  239) = (   0.1000000   0.2309401   0.2151251), wk =   0.0060000
        k(  240) = (   0.1000000   0.2309401   0.2458573), wk =   0.0060000
        k(  241) = (   0.1000000   0.2309401   0.2765895), wk =   0.0060000
        k(  242) = (   0.1000000   0.2309401  -0.3073216), wk =   0.0030000
        k(  243) = (   0.1000000   0.2886751   0.0000000), wk =   0.0030000
        k(  244) = (   0.1000000   0.2886751   0.0307322), wk =   0.0060000
        k(  245) = (   0.1000000   0.2886751   0.0614643), wk =   0.0060000
        k(  246) = (   0.1000000   0.2886751   0.0921965), wk =   0.0060000
        k(  247) = (   0.1000000   0.2886751   0.1229287), wk =   0.0060000
        k(  248) = (   0.1000000   0.2886751   0.1536608), wk =   0.0060000
        k(  249) = (   0.1000000   0.2886751   0.1843930), wk =   0.0060000
        k(  250) = (   0.1000000   0.2886751   0.2151251), wk =   0.0060000
        k(  251) = (   0.1000000   0.2886751   0.2458573), wk =   0.0060000
        k(  252) = (   0.1000000   0.2886751   0.2765895), wk =   0.0060000
        k(  253) = (   0.1000000   0.2886751  -0.3073216), wk =   0.0030000
        k(  254) = (   0.1000000   0.3464102   0.0000000), wk =   0.0030000
        k(  255) = (   0.1000000   0.3464102   0.0307322), wk =   0.0060000
        k(  256) = (   0.1000000   0.3464102   0.0614643), wk =   0.0060000
        k(  257) = (   0.1000000   0.3464102   0.0921965), wk =   0.0060000
        k(  258) = (   0.1000000   0.3464102   0.1229287), wk =   0.0060000
        k(  259) = (   0.1000000   0.3464102   0.1536608), wk =   0.0060000
        k(  260) = (   0.1000000   0.3464102   0.1843930), wk =   0.0060000
        k(  261) = (   0.1000000   0.3464102   0.2151251), wk =   0.0060000
        k(  262) = (   0.1000000   0.3464102   0.2458573), wk =   0.0060000
        k(  263) = (   0.1000000   0.3464102   0.2765895), wk =   0.0060000
        k(  264) = (   0.1000000   0.3464102  -0.3073216), wk =   0.0030000
        k(  265) = (   0.1000000   0.4041452   0.0000000), wk =   0.0030000
        k(  266) = (   0.1000000   0.4041452   0.0307322), wk =   0.0060000
        k(  267) = (   0.1000000   0.4041452   0.0614643), wk =   0.0060000
        k(  268) = (   0.1000000   0.4041452   0.0921965), wk =   0.0060000
        k(  269) = (   0.1000000   0.4041452   0.1229287), wk =   0.0060000
        k(  270) = (   0.1000000   0.4041452   0.1536608), wk =   0.0060000
        k(  271) = (   0.1000000   0.4041452   0.1843930), wk =   0.0060000
        k(  272) = (   0.1000000   0.4041452   0.2151251), wk =   0.0060000
        k(  273) = (   0.1000000   0.4041452   0.2458573), wk =   0.0060000
        k(  274) = (   0.1000000   0.4041452   0.2765895), wk =   0.0060000
        k(  275) = (   0.1000000   0.4041452  -0.3073216), wk =   0.0030000
        k(  276) = (   0.1000000   0.4618802   0.0000000), wk =   0.0030000
        k(  277) = (   0.1000000   0.4618802   0.0307322), wk =   0.0060000
        k(  278) = (   0.1000000   0.4618802   0.0614643), wk =   0.0060000
        k(  279) = (   0.1000000   0.4618802   0.0921965), wk =   0.0060000
        k(  280) = (   0.1000000   0.4618802   0.1229287), wk =   0.0060000
        k(  281) = (   0.1000000   0.4618802   0.1536608), wk =   0.0060000
        k(  282) = (   0.1000000   0.4618802   0.1843930), wk =   0.0060000
        k(  283) = (   0.1000000   0.4618802   0.2151251), wk =   0.0060000
        k(  284) = (   0.1000000   0.4618802   0.2458573), wk =   0.0060000
        k(  285) = (   0.1000000   0.4618802   0.2765895), wk =   0.0060000
        k(  286) = (   0.1000000   0.4618802  -0.3073216), wk =   0.0030000
        k(  287) = (   0.1000000   0.5196152   0.0000000), wk =   0.0030000
        k(  288) = (   0.1000000   0.5196152   0.0307322), wk =   0.0060000
        k(  289) = (   0.1000000   0.5196152   0.0614643), wk =   0.0060000
        k(  290) = (   0.1000000   0.5196152   0.0921965), wk =   0.0060000
        k(  291) = (   0.1000000   0.5196152   0.1229287), wk =   0.0060000
        k(  292) = (   0.1000000   0.5196152   0.1536608), wk =   0.0060000
        k(  293) = (   0.1000000   0.5196152   0.1843930), wk =   0.0060000
        k(  294) = (   0.1000000   0.5196152   0.2151251), wk =   0.0060000
        k(  295) = (   0.1000000   0.5196152   0.2458573), wk =   0.0060000
        k(  296) = (   0.1000000   0.5196152   0.2765895), wk =   0.0060000
        k(  297) = (   0.1000000   0.5196152  -0.3073216), wk =   0.0030000
        k(  298) = (   0.1000000   0.5773503   0.0000000), wk =   0.0015000
        k(  299) = (   0.1000000   0.5773503   0.0307322), wk =   0.0030000
        k(  300) = (   0.1000000   0.5773503   0.0614643), wk =   0.0030000
        k(  301) = (   0.1000000   0.5773503   0.0921965), wk =   0.0030000
        k(  302) = (   0.1000000   0.5773503   0.1229287), wk =   0.0030000
        k(  303) = (   0.1000000   0.5773503   0.1536608), wk =   0.0030000
        k(  304) = (   0.1000000   0.5773503   0.1843930), wk =   0.0030000
        k(  305) = (   0.1000000   0.5773503   0.2151251), wk =   0.0030000
        k(  306) = (   0.1000000   0.5773503   0.2458573), wk =   0.0030000
        k(  307) = (   0.1000000   0.5773503   0.2765895), wk =   0.0030000
        k(  308) = (   0.1000000   0.5773503  -0.3073216), wk =   0.0015000
        k(  309) = (   0.1500000   0.2598076   0.0000000), wk =   0.0015000
        k(  310) = (   0.1500000   0.2598076   0.0307322), wk =   0.0030000
        k(  311) = (   0.1500000   0.2598076   0.0614643), wk =   0.0030000
        k(  312) = (   0.1500000   0.2598076   0.0921965), wk =   0.0030000
        k(  313) = (   0.1500000   0.2598076   0.1229287), wk =   0.0030000
        k(  314) = (   0.1500000   0.2598076   0.1536608), wk =   0.0030000
        k(  315) = (   0.1500000   0.2598076   0.1843930), wk =   0.0030000
        k(  316) = (   0.1500000   0.2598076   0.2151251), wk =   0.0030000
        k(  317) = (   0.1500000   0.2598076   0.2458573), wk =   0.0030000
        k(  318) = (   0.1500000   0.2598076   0.2765895), wk =   0.0030000
        k(  319) = (   0.1500000   0.2598076  -0.3073216), wk =   0.0015000
        k(  320) = (   0.1500000   0.3175426   0.0000000), wk =   0.0030000
        k(  321) = (   0.1500000   0.3175426   0.0307322), wk =   0.0060000
        k(  322) = (   0.1500000   0.3175426   0.0614643), wk =   0.0060000
        k(  323) = (   0.1500000   0.3175426   0.0921965), wk =   0.0060000
        k(  324) = (   0.1500000   0.3175426   0.1229287), wk =   0.0060000
        k(  325) = (   0.1500000   0.3175426   0.1536608), wk =   0.0060000
        k(  326) = (   0.1500000   0.3175426   0.1843930), wk =   0.0060000
        k(  327) = (   0.1500000   0.3175426   0.2151251), wk =   0.0060000
        k(  328) = (   0.1500000   0.3175426   0.2458573), wk =   0.0060000
        k(  329) = (   0.1500000   0.3175426   0.2765895), wk =   0.0060000
        k(  330) = (   0.1500000   0.3175426  -0.3073216), wk =   0.0030000
        k(  331) = (   0.1500000   0.3752777   0.0000000), wk =   0.0030000
        k(  332) = (   0.1500000   0.3752777   0.0307322), wk =   0.0060000
        k(  333) = (   0.1500000   0.3752777   0.0614643), wk =   0.0060000
        k(  334) = (   0.1500000   0.3752777   0.0921965), wk =   0.0060000
        k(  335) = (   0.1500000   0.3752777   0.1229287), wk =   0.0060000
        k(  336) = (   0.1500000   0.3752777   0.1536608), wk =   0.0060000
        k(  337) = (   0.1500000   0.3752777   0.1843930), wk =   0.0060000
        k(  338) = (   0.1500000   0.3752777   0.2151251), wk =   0.0060000
        k(  339) = (   0.1500000   0.3752777   0.2458573), wk =   0.0060000
        k(  340) = (   0.1500000   0.3752777   0.2765895), wk =   0.0060000
        k(  341) = (   0.1500000   0.3752777  -0.3073216), wk =   0.0030000
        k(  342) = (   0.1500000   0.4330127   0.0000000), wk =   0.0030000
        k(  343) = (   0.1500000   0.4330127   0.0307322), wk =   0.0060000
        k(  344) = (   0.1500000   0.4330127   0.0614643), wk =   0.0060000
        k(  345) = (   0.1500000   0.4330127   0.0921965), wk =   0.0060000
        k(  346) = (   0.1500000   0.4330127   0.1229287), wk =   0.0060000
        k(  347) = (   0.1500000   0.4330127   0.1536608), wk =   0.0060000
        k(  348) = (   0.1500000   0.4330127   0.1843930), wk =   0.0060000
        k(  349) = (   0.1500000   0.4330127   0.2151251), wk =   0.0060000
        k(  350) = (   0.1500000   0.4330127   0.2458573), wk =   0.0060000
        k(  351) = (   0.1500000   0.4330127   0.2765895), wk =   0.0060000
        k(  352) = (   0.1500000   0.4330127  -0.3073216), wk =   0.0030000
        k(  353) = (   0.1500000   0.4907477   0.0000000), wk =   0.0030000
        k(  354) = (   0.1500000   0.4907477   0.0307322), wk =   0.0060000
        k(  355) = (   0.1500000   0.4907477   0.0614643), wk =   0.0060000
        k(  356) = (   0.1500000   0.4907477   0.0921965), wk =   0.0060000
        k(  357) = (   0.1500000   0.4907477   0.1229287), wk =   0.0060000
        k(  358) = (   0.1500000   0.4907477   0.1536608), wk =   0.0060000
        k(  359) = (   0.1500000   0.4907477   0.1843930), wk =   0.0060000
        k(  360) = (   0.1500000   0.4907477   0.2151251), wk =   0.0060000
        k(  361) = (   0.1500000   0.4907477   0.2458573), wk =   0.0060000
        k(  362) = (   0.1500000   0.4907477   0.2765895), wk =   0.0060000
        k(  363) = (   0.1500000   0.4907477  -0.3073216), wk =   0.0030000
        k(  364) = (   0.1500000   0.5484828   0.0000000), wk =   0.0030000
        k(  365) = (   0.1500000   0.5484828   0.0307322), wk =   0.0060000
        k(  366) = (   0.1500000   0.5484828   0.0614643), wk =   0.0060000
        k(  367) = (   0.1500000   0.5484828   0.0921965), wk =   0.0060000
        k(  368) = (   0.1500000   0.5484828   0.1229287), wk =   0.0060000
        k(  369) = (   0.1500000   0.5484828   0.1536608), wk =   0.0060000
        k(  370) = (   0.1500000   0.5484828   0.1843930), wk =   0.0060000
        k(  371) = (   0.1500000   0.5484828   0.2151251), wk =   0.0060000
        k(  372) = (   0.1500000   0.5484828   0.2458573), wk =   0.0060000
        k(  373) = (   0.1500000   0.5484828   0.2765895), wk =   0.0060000
        k(  374) = (   0.1500000   0.5484828  -0.3073216), wk =   0.0030000
        k(  375) = (   0.2000000   0.3464102   0.0000000), wk =   0.0015000
        k(  376) = (   0.2000000   0.3464102   0.0307322), wk =   0.0030000
        k(  377) = (   0.2000000   0.3464102   0.0614643), wk =   0.0030000
        k(  378) = (   0.2000000   0.3464102   0.0921965), wk =   0.0030000
        k(  379) = (   0.2000000   0.3464102   0.1229287), wk =   0.0030000
        k(  380) = (   0.2000000   0.3464102   0.1536608), wk =   0.0030000
        k(  381) = (   0.2000000   0.3464102   0.1843930), wk =   0.0030000
        k(  382) = (   0.2000000   0.3464102   0.2151251), wk =   0.0030000
        k(  383) = (   0.2000000   0.3464102   0.2458573), wk =   0.0030000
        k(  384) = (   0.2000000   0.3464102   0.2765895), wk =   0.0030000
        k(  385) = (   0.2000000   0.3464102  -0.3073216), wk =   0.0015000
        k(  386) = (   0.2000000   0.4041452   0.0000000), wk =   0.0030000
        k(  387) = (   0.2000000   0.4041452   0.0307322), wk =   0.0060000
        k(  388) = (   0.2000000   0.4041452   0.0614643), wk =   0.0060000
        k(  389) = (   0.2000000   0.4041452   0.0921965), wk =   0.0060000
        k(  390) = (   0.2000000   0.4041452   0.1229287), wk =   0.0060000
        k(  391) = (   0.2000000   0.4041452   0.1536608), wk =   0.0060000
        k(  392) = (   0.2000000   0.4041452   0.1843930), wk =   0.0060000
        k(  393) = (   0.2000000   0.4041452   0.2151251), wk =   0.0060000
        k(  394) = (   0.2000000   0.4041452   0.2458573), wk =   0.0060000
        k(  395) = (   0.2000000   0.4041452   0.2765895), wk =   0.0060000
        k(  396) = (   0.2000000   0.4041452  -0.3073216), wk =   0.0030000
        k(  397) = (   0.2000000   0.4618802   0.0000000), wk =   0.0030000
        k(  398) = (   0.2000000   0.4618802   0.0307322), wk =   0.0060000
        k(  399) = (   0.2000000   0.4618802   0.0614643), wk =   0.0060000
        k(  400) = (   0.2000000   0.4618802   0.0921965), wk =   0.0060000
        k(  401) = (   0.2000000   0.4618802   0.1229287), wk =   0.0060000
        k(  402) = (   0.2000000   0.4618802   0.1536608), wk =   0.0060000
        k(  403) = (   0.2000000   0.4618802   0.1843930), wk =   0.0060000
        k(  404) = (   0.2000000   0.4618802   0.2151251), wk =   0.0060000
        k(  405) = (   0.2000000   0.4618802   0.2458573), wk =   0.0060000
        k(  406) = (   0.2000000   0.4618802   0.2765895), wk =   0.0060000
        k(  407) = (   0.2000000   0.4618802  -0.3073216), wk =   0.0030000
        k(  408) = (   0.2000000   0.5196152   0.0000000), wk =   0.0030000
        k(  409) = (   0.2000000   0.5196152   0.0307322), wk =   0.0060000
        k(  410) = (   0.2000000   0.5196152   0.0614643), wk =   0.0060000
        k(  411) = (   0.2000000   0.5196152   0.0921965), wk =   0.0060000
        k(  412) = (   0.2000000   0.5196152   0.1229287), wk =   0.0060000
        k(  413) = (   0.2000000   0.5196152   0.1536608), wk =   0.0060000
        k(  414) = (   0.2000000   0.5196152   0.1843930), wk =   0.0060000
        k(  415) = (   0.2000000   0.5196152   0.2151251), wk =   0.0060000
        k(  416) = (   0.2000000   0.5196152   0.2458573), wk =   0.0060000
        k(  417) = (   0.2000000   0.5196152   0.2765895), wk =   0.0060000
        k(  418) = (   0.2000000   0.5196152  -0.3073216), wk =   0.0030000
        k(  419) = (   0.2000000   0.5773503   0.0000000), wk =   0.0015000
        k(  420) = (   0.2000000   0.5773503   0.0307322), wk =   0.0030000
        k(  421) = (   0.2000000   0.5773503   0.0614643), wk =   0.0030000
        k(  422) = (   0.2000000   0.5773503   0.0921965), wk =   0.0030000
        k(  423) = (   0.2000000   0.5773503   0.1229287), wk =   0.0030000
        k(  424) = (   0.2000000   0.5773503   0.1536608), wk =   0.0030000
        k(  425) = (   0.2000000   0.5773503   0.1843930), wk =   0.0030000
        k(  426) = (   0.2000000   0.5773503   0.2151251), wk =   0.0030000
        k(  427) = (   0.2000000   0.5773503   0.2458573), wk =   0.0030000
        k(  428) = (   0.2000000   0.5773503   0.2765895), wk =   0.0030000
        k(  429) = (   0.2000000   0.5773503  -0.3073216), wk =   0.0015000
        k(  430) = (   0.2500000   0.4330127   0.0000000), wk =   0.0015000
        k(  431) = (   0.2500000   0.4330127   0.0307322), wk =   0.0030000
        k(  432) = (   0.2500000   0.4330127   0.0614643), wk =   0.0030000
        k(  433) = (   0.2500000   0.4330127   0.0921965), wk =   0.0030000
        k(  434) = (   0.2500000   0.4330127   0.1229287), wk =   0.0030000
        k(  435) = (   0.2500000   0.4330127   0.1536608), wk =   0.0030000
        k(  436) = (   0.2500000   0.4330127   0.1843930), wk =   0.0030000
        k(  437) = (   0.2500000   0.4330127   0.2151251), wk =   0.0030000
        k(  438) = (   0.2500000   0.4330127   0.2458573), wk =   0.0030000
        k(  439) = (   0.2500000   0.4330127   0.2765895), wk =   0.0030000
        k(  440) = (   0.2500000   0.4330127  -0.3073216), wk =   0.0015000
        k(  441) = (   0.2500000   0.4907477   0.0000000), wk =   0.0030000
        k(  442) = (   0.2500000   0.4907477   0.0307322), wk =   0.0060000
        k(  443) = (   0.2500000   0.4907477   0.0614643), wk =   0.0060000
        k(  444) = (   0.2500000   0.4907477   0.0921965), wk =   0.0060000
        k(  445) = (   0.2500000   0.4907477   0.1229287), wk =   0.0060000
        k(  446) = (   0.2500000   0.4907477   0.1536608), wk =   0.0060000
        k(  447) = (   0.2500000   0.4907477   0.1843930), wk =   0.0060000
        k(  448) = (   0.2500000   0.4907477   0.2151251), wk =   0.0060000
        k(  449) = (   0.2500000   0.4907477   0.2458573), wk =   0.0060000
        k(  450) = (   0.2500000   0.4907477   0.2765895), wk =   0.0060000
        k(  451) = (   0.2500000   0.4907477  -0.3073216), wk =   0.0030000
        k(  452) = (   0.2500000   0.5484828   0.0000000), wk =   0.0030000
        k(  453) = (   0.2500000   0.5484828   0.0307322), wk =   0.0060000
        k(  454) = (   0.2500000   0.5484828   0.0614643), wk =   0.0060000
        k(  455) = (   0.2500000   0.5484828   0.0921965), wk =   0.0060000
        k(  456) = (   0.2500000   0.5484828   0.1229287), wk =   0.0060000
        k(  457) = (   0.2500000   0.5484828   0.1536608), wk =   0.0060000
        k(  458) = (   0.2500000   0.5484828   0.1843930), wk =   0.0060000
        k(  459) = (   0.2500000   0.5484828   0.2151251), wk =   0.0060000
        k(  460) = (   0.2500000   0.5484828   0.2458573), wk =   0.0060000
        k(  461) = (   0.2500000   0.5484828   0.2765895), wk =   0.0060000
        k(  462) = (   0.2500000   0.5484828  -0.3073216), wk =   0.0030000
        k(  463) = (   0.3000000   0.5196152   0.0000000), wk =   0.0015000
        k(  464) = (   0.3000000   0.5196152   0.0307322), wk =   0.0030000
        k(  465) = (   0.3000000   0.5196152   0.0614643), wk =   0.0030000
        k(  466) = (   0.3000000   0.5196152   0.0921965), wk =   0.0030000
        k(  467) = (   0.3000000   0.5196152   0.1229287), wk =   0.0030000
        k(  468) = (   0.3000000   0.5196152   0.1536608), wk =   0.0030000
        k(  469) = (   0.3000000   0.5196152   0.1843930), wk =   0.0030000
        k(  470) = (   0.3000000   0.5196152   0.2151251), wk =   0.0030000
        k(  471) = (   0.3000000   0.5196152   0.2458573), wk =   0.0030000
        k(  472) = (   0.3000000   0.5196152   0.2765895), wk =   0.0030000
        k(  473) = (   0.3000000   0.5196152  -0.3073216), wk =   0.0015000
        k(  474) = (   0.3000000   0.5773503   0.0000000), wk =   0.0015000
        k(  475) = (   0.3000000   0.5773503   0.0307322), wk =   0.0030000
        k(  476) = (   0.3000000   0.5773503   0.0614643), wk =   0.0030000
        k(  477) = (   0.3000000   0.5773503   0.0921965), wk =   0.0030000
        k(  478) = (   0.3000000   0.5773503   0.1229287), wk =   0.0030000
        k(  479) = (   0.3000000   0.5773503   0.1536608), wk =   0.0030000
        k(  480) = (   0.3000000   0.5773503   0.1843930), wk =   0.0030000
        k(  481) = (   0.3000000   0.5773503   0.2151251), wk =   0.0030000
        k(  482) = (   0.3000000   0.5773503   0.2458573), wk =   0.0030000
        k(  483) = (   0.3000000   0.5773503   0.2765895), wk =   0.0030000
        k(  484) = (   0.3000000   0.5773503  -0.3073216), wk =   0.0015000

                       cryst. coord.
        k(    1) = (   0.0000000   0.0000000   0.0000000), wk =   0.0002500
        k(    2) = (   0.0000000   0.0000000   0.0500000), wk =   0.0005000
        k(    3) = (   0.0000000   0.0000000   0.1000000), wk =   0.0005000
        k(    4) = (   0.0000000   0.0000000   0.1500000), wk =   0.0005000
        k(    5) = (   0.0000000   0.0000000   0.2000000), wk =   0.0005000
        k(    6) = (   0.0000000   0.0000000   0.2500000), wk =   0.0005000
        k(    7) = (   0.0000000   0.0000000   0.3000000), wk =   0.0005000
        k(    8) = (   0.0000000   0.0000000   0.3500000), wk =   0.0005000
        k(    9) = (   0.0000000   0.0000000   0.4000000), wk =   0.0005000
        k(   10) = (   0.0000000   0.0000000   0.4500000), wk =   0.0005000
        k(   11) = (   0.0000000   0.0000000  -0.5000000), wk =   0.0002500
        k(   12) = (   0.0000000   0.0500000   0.0000000), wk =   0.0015000
        k(   13) = (   0.0000000   0.0500000   0.0500000), wk =   0.0030000
        k(   14) = (   0.0000000   0.0500000   0.1000000), wk =   0.0030000
        k(   15) = (   0.0000000   0.0500000   0.1500000), wk =   0.0030000
        k(   16) = (   0.0000000   0.0500000   0.2000000), wk =   0.0030000
        k(   17) = (   0.0000000   0.0500000   0.2500000), wk =   0.0030000
        k(   18) = (   0.0000000   0.0500000   0.3000000), wk =   0.0030000
        k(   19) = (   0.0000000   0.0500000   0.3500000), wk =   0.0030000
        k(   20) = (   0.0000000   0.0500000   0.4000000), wk =   0.0030000
        k(   21) = (   0.0000000   0.0500000   0.4500000), wk =   0.0030000
        k(   22) = (   0.0000000   0.0500000  -0.5000000), wk =   0.0015000
        k(   23) = (   0.0000000   0.1000000   0.0000000), wk =   0.0015000
        k(   24) = (   0.0000000   0.1000000   0.0500000), wk =   0.0030000
        k(   25) = (   0.0000000   0.1000000   0.1000000), wk =   0.0030000
        k(   26) = (   0.0000000   0.1000000   0.1500000), wk =   0.0030000
        k(   27) = (   0.0000000   0.1000000   0.2000000), wk =   0.0030000
        k(   28) = (   0.0000000   0.1000000   0.2500000), wk =   0.0030000
        k(   29) = (   0.0000000   0.1000000   0.3000000), wk =   0.0030000
        k(   30) = (   0.0000000   0.1000000   0.3500000), wk =   0.0030000
        k(   31) = (   0.0000000   0.1000000   0.4000000), wk =   0.0030000
        k(   32) = (   0.0000000   0.1000000   0.4500000), wk =   0.0030000
        k(   33) = (   0.0000000   0.1000000  -0.5000000), wk =   0.0015000
        k(   34) = (   0.0000000   0.1500000   0.0000000), wk =   0.0015000
        k(   35) = (   0.0000000   0.1500000   0.0500000), wk =   0.0030000
        k(   36) = (   0.0000000   0.1500000   0.1000000), wk =   0.0030000
        k(   37) = (   0.0000000   0.1500000   0.1500000), wk =   0.0030000
        k(   38) = (   0.0000000   0.1500000   0.2000000), wk =   0.0030000
        k(   39) = (   0.0000000   0.1500000   0.2500000), wk =   0.0030000
        k(   40) = (   0.0000000   0.1500000   0.3000000), wk =   0.0030000
        k(   41) = (   0.0000000   0.1500000   0.3500000), wk =   0.0030000
        k(   42) = (   0.0000000   0.1500000   0.4000000), wk =   0.0030000
        k(   43) = (   0.0000000   0.1500000   0.4500000), wk =   0.0030000
        k(   44) = (   0.0000000   0.1500000  -0.5000000), wk =   0.0015000
        k(   45) = (   0.0000000   0.2000000   0.0000000), wk =   0.0015000
        k(   46) = (   0.0000000   0.2000000   0.0500000), wk =   0.0030000
        k(   47) = (   0.0000000   0.2000000   0.1000000), wk =   0.0030000
        k(   48) = (   0.0000000   0.2000000   0.1500000), wk =   0.0030000
        k(   49) = (   0.0000000   0.2000000   0.2000000), wk =   0.0030000
        k(   50) = (   0.0000000   0.2000000   0.2500000), wk =   0.0030000
        k(   51) = (   0.0000000   0.2000000   0.3000000), wk =   0.0030000
        k(   52) = (   0.0000000   0.2000000   0.3500000), wk =   0.0030000
        k(   53) = (   0.0000000   0.2000000   0.4000000), wk =   0.0030000
        k(   54) = (   0.0000000   0.2000000   0.4500000), wk =   0.0030000
        k(   55) = (   0.0000000   0.2000000  -0.5000000), wk =   0.0015000
        k(   56) = (   0.0000000   0.2500000   0.0000000), wk =   0.0015000
        k(   57) = (   0.0000000   0.2500000   0.0500000), wk =   0.0030000
        k(   58) = (   0.0000000   0.2500000   0.1000000), wk =   0.0030000
        k(   59) = (   0.0000000   0.2500000   0.1500000), wk =   0.0030000
        k(   60) = (   0.0000000   0.2500000   0.2000000), wk =   0.0030000
        k(   61) = (   0.0000000   0.2500000   0.2500000), wk =   0.0030000
        k(   62) = (   0.0000000   0.2500000   0.3000000), wk =   0.0030000
        k(   63) = (   0.0000000   0.2500000   0.3500000), wk =   0.0030000
        k(   64) = (   0.0000000   0.2500000   0.4000000), wk =   0.0030000
        k(   65) = (   0.0000000   0.2500000   0.4500000), wk =   0.0030000
        k(   66) = (   0.0000000   0.2500000  -0.5000000), wk =   0.0015000
        k(   67) = (   0.0000000   0.3000000   0.0000000), wk =   0.0015000
        k(   68) = (   0.0000000   0.3000000   0.0500000), wk =   0.0030000
        k(   69) = (   0.0000000   0.3000000   0.1000000), wk =   0.0030000
        k(   70) = (   0.0000000   0.3000000   0.1500000), wk =   0.0030000
        k(   71) = (   0.0000000   0.3000000   0.2000000), wk =   0.0030000
        k(   72) = (   0.0000000   0.3000000   0.2500000), wk =   0.0030000
        k(   73) = (   0.0000000   0.3000000   0.3000000), wk =   0.0030000
        k(   74) = (   0.0000000   0.3000000   0.3500000), wk =   0.0030000
        k(   75) = (   0.0000000   0.3000000   0.4000000), wk =   0.0030000
        k(   76) = (   0.0000000   0.3000000   0.4500000), wk =   0.0030000
        k(   77) = (   0.0000000   0.3000000  -0.5000000), wk =   0.0015000
        k(   78) = (   0.0000000   0.3500000   0.0000000), wk =   0.0015000
        k(   79) = (   0.0000000   0.3500000   0.0500000), wk =   0.0030000
        k(   80) = (   0.0000000   0.3500000   0.1000000), wk =   0.0030000
        k(   81) = (   0.0000000   0.3500000   0.1500000), wk =   0.0030000
        k(   82) = (   0.0000000   0.3500000   0.2000000), wk =   0.0030000
        k(   83) = (   0.0000000   0.3500000   0.2500000), wk =   0.0030000
        k(   84) = (   0.0000000   0.3500000   0.3000000), wk =   0.0030000
        k(   85) = (   0.0000000   0.3500000   0.3500000), wk =   0.0030000
        k(   86) = (   0.0000000   0.3500000   0.4000000), wk =   0.0030000
        k(   87) = (   0.0000000   0.3500000   0.4500000), wk =   0.0030000
        k(   88) = (   0.0000000   0.3500000  -0.5000000), wk =   0.0015000
        k(   89) = (   0.0000000   0.4000000   0.0000000), wk =   0.0015000
        k(   90) = (   0.0000000   0.4000000   0.0500000), wk =   0.0030000
        k(   91) = (   0.0000000   0.4000000   0.1000000), wk =   0.0030000
        k(   92) = (   0.0000000   0.4000000   0.1500000), wk =   0.0030000
        k(   93) = (   0.0000000   0.4000000   0.2000000), wk =   0.0030000
        k(   94) = (   0.0000000   0.4000000   0.2500000), wk =   0.0030000
        k(   95) = (   0.0000000   0.4000000   0.3000000), wk =   0.0030000
        k(   96) = (   0.0000000   0.4000000   0.3500000), wk =   0.0030000
        k(   97) = (   0.0000000   0.4000000   0.4000000), wk =   0.0030000
        k(   98) = (   0.0000000   0.4000000   0.4500000), wk =   0.0030000
        k(   99) = (   0.0000000   0.4000000  -0.5000000), wk =   0.0015000
        k(  100) = (   0.0000000   0.4500000   0.0000000), wk =   0.0015000
        k(  101) = (   0.0000000   0.4500000   0.0500000), wk =   0.0030000
        k(  102) = (   0.0000000   0.4500000   0.1000000), wk =   0.0030000
        k(  103) = (   0.0000000   0.4500000   0.1500000), wk =   0.0030000
        k(  104) = (   0.0000000   0.4500000   0.2000000), wk =   0.0030000
        k(  105) = (   0.0000000   0.4500000   0.2500000), wk =   0.0030000
        k(  106) = (   0.0000000   0.4500000   0.3000000), wk =   0.0030000
        k(  107) = (   0.0000000   0.4500000   0.3500000), wk =   0.0030000
        k(  108) = (   0.0000000   0.4500000   0.4000000), wk =   0.0030000
        k(  109) = (   0.0000000   0.4500000   0.4500000), wk =   0.0030000
        k(  110) = (   0.0000000   0.4500000  -0.5000000), wk =   0.0015000
        k(  111) = (   0.0000000  -0.5000000   0.0000000), wk =   0.0007500
        k(  112) = (   0.0000000  -0.5000000   0.0500000), wk =   0.0015000
        k(  113) = (   0.0000000  -0.5000000   0.1000000), wk =   0.0015000
        k(  114) = (   0.0000000  -0.5000000   0.1500000), wk =   0.0015000
        k(  115) = (   0.0000000  -0.5000000   0.2000000), wk =   0.0015000
        k(  116) = (   0.0000000  -0.5000000   0.2500000), wk =   0.0015000
        k(  117) = (   0.0000000  -0.5000000   0.3000000), wk =   0.0015000
        k(  118) = (   0.0000000  -0.5000000   0.3500000), wk =   0.0015000
        k(  119) = (   0.0000000  -0.5000000   0.4000000), wk =   0.0015000
        k(  120) = (   0.0000000  -0.5000000   0.4500000), wk =   0.0015000
        k(  121) = (   0.0000000  -0.5000000  -0.5000000), wk =   0.0007500
        k(  122) = (   0.0500000   0.0500000   0.0000000), wk =   0.0015000
        k(  123) = (   0.0500000   0.0500000   0.0500000), wk =   0.0030000
        k(  124) = (   0.0500000   0.0500000   0.1000000), wk =   0.0030000
        k(  125) = (   0.0500000   0.0500000   0.1500000), wk =   0.0030000
        k(  126) = (   0.0500000   0.0500000   0.2000000), wk =   0.0030000
        k(  127) = (   0.0500000   0.0500000   0.2500000), wk =   0.0030000
        k(  128) = (   0.0500000   0.0500000   0.3000000), wk =   0.0030000
        k(  129) = (   0.0500000   0.0500000   0.3500000), wk =   0.0030000
        k(  130) = (   0.0500000   0.0500000   0.4000000), wk =   0.0030000
        k(  131) = (   0.0500000   0.0500000   0.4500000), wk =   0.0030000
        k(  132) = (   0.0500000   0.0500000  -0.5000000), wk =   0.0015000
        k(  133) = (   0.0500000   0.1000000   0.0000000), wk =   0.0030000
        k(  134) = (   0.0500000   0.1000000   0.0500000), wk =   0.0060000
        k(  135) = (   0.0500000   0.1000000   0.1000000), wk =   0.0060000
        k(  136) = (   0.0500000   0.1000000   0.1500000), wk =   0.0060000
        k(  137) = (   0.0500000   0.1000000   0.2000000), wk =   0.0060000
        k(  138) = (   0.0500000   0.1000000   0.2500000), wk =   0.0060000
        k(  139) = (   0.0500000   0.1000000   0.3000000), wk =   0.0060000
        k(  140) = (   0.0500000   0.1000000   0.3500000), wk =   0.0060000
        k(  141) = (   0.0500000   0.1000000   0.4000000), wk =   0.0060000
        k(  142) = (   0.0500000   0.1000000   0.4500000), wk =   0.0060000
        k(  143) = (   0.0500000   0.1000000  -0.5000000), wk =   0.0030000
        k(  144) = (   0.0500000   0.1500000   0.0000000), wk =   0.0030000
        k(  145) = (   0.0500000   0.1500000   0.0500000), wk =   0.0060000
        k(  146) = (   0.0500000   0.1500000   0.1000000), wk =   0.0060000
        k(  147) = (   0.0500000   0.1500000   0.1500000), wk =   0.0060000
        k(  148) = (   0.0500000   0.1500000   0.2000000), wk =   0.0060000
        k(  149) = (   0.0500000   0.1500000   0.2500000), wk =   0.0060000
        k(  150) = (   0.0500000   0.1500000   0.3000000), wk =   0.0060000
        k(  151) = (   0.0500000   0.1500000   0.3500000), wk =   0.0060000
        k(  152) = (   0.0500000   0.1500000   0.4000000), wk =   0.0060000
        k(  153) = (   0.0500000   0.1500000   0.4500000), wk =   0.0060000
        k(  154) = (   0.0500000   0.1500000  -0.5000000), wk =   0.0030000
        k(  155) = (   0.0500000   0.2000000   0.0000000), wk =   0.0030000
        k(  156) = (   0.0500000   0.2000000   0.0500000), wk =   0.0060000
        k(  157) = (   0.0500000   0.2000000   0.1000000), wk =   0.0060000
        k(  158) = (   0.0500000   0.2000000   0.1500000), wk =   0.0060000
        k(  159) = (   0.0500000   0.2000000   0.2000000), wk =   0.0060000
        k(  160) = (   0.0500000   0.2000000   0.2500000), wk =   0.0060000
        k(  161) = (   0.0500000   0.2000000   0.3000000), wk =   0.0060000
        k(  162) = (   0.0500000   0.2000000   0.3500000), wk =   0.0060000
        k(  163) = (   0.0500000   0.2000000   0.4000000), wk =   0.0060000
        k(  164) = (   0.0500000   0.2000000   0.4500000), wk =   0.0060000
        k(  165) = (   0.0500000   0.2000000  -0.5000000), wk =   0.0030000
        k(  166) = (   0.0500000   0.2500000   0.0000000), wk =   0.0030000
        k(  167) = (   0.0500000   0.2500000   0.0500000), wk =   0.0060000
        k(  168) = (   0.0500000   0.2500000   0.1000000), wk =   0.0060000
        k(  169) = (   0.0500000   0.2500000   0.1500000), wk =   0.0060000
        k(  170) = (   0.0500000   0.2500000   0.2000000), wk =   0.0060000
        k(  171) = (   0.0500000   0.2500000   0.2500000), wk =   0.0060000
        k(  172) = (   0.0500000   0.2500000   0.3000000), wk =   0.0060000
        k(  173) = (   0.0500000   0.2500000   0.3500000), wk =   0.0060000
        k(  174) = (   0.0500000   0.2500000   0.4000000), wk =   0.0060000
        k(  175) = (   0.0500000   0.2500000   0.4500000), wk =   0.0060000
        k(  176) = (   0.0500000   0.2500000  -0.5000000), wk =   0.0030000
        k(  177) = (   0.0500000   0.3000000   0.0000000), wk =   0.0030000
        k(  178) = (   0.0500000   0.3000000   0.0500000), wk =   0.0060000
        k(  179) = (   0.0500000   0.3000000   0.1000000), wk =   0.0060000
        k(  180) = (   0.0500000   0.3000000   0.1500000), wk =   0.0060000
        k(  181) = (   0.0500000   0.3000000   0.2000000), wk =   0.0060000
        k(  182) = (   0.0500000   0.3000000   0.2500000), wk =   0.0060000
        k(  183) = (   0.0500000   0.3000000   0.3000000), wk =   0.0060000
        k(  184) = (   0.0500000   0.3000000   0.3500000), wk =   0.0060000
        k(  185) = (   0.0500000   0.3000000   0.4000000), wk =   0.0060000
        k(  186) = (   0.0500000   0.3000000   0.4500000), wk =   0.0060000
        k(  187) = (   0.0500000   0.3000000  -0.5000000), wk =   0.0030000
        k(  188) = (   0.0500000   0.3500000   0.0000000), wk =   0.0030000
        k(  189) = (   0.0500000   0.3500000   0.0500000), wk =   0.0060000
        k(  190) = (   0.0500000   0.3500000   0.1000000), wk =   0.0060000
        k(  191) = (   0.0500000   0.3500000   0.1500000), wk =   0.0060000
        k(  192) = (   0.0500000   0.3500000   0.2000000), wk =   0.0060000
        k(  193) = (   0.0500000   0.3500000   0.2500000), wk =   0.0060000
        k(  194) = (   0.0500000   0.3500000   0.3000000), wk =   0.0060000
        k(  195) = (   0.0500000   0.3500000   0.3500000), wk =   0.0060000
        k(  196) = (   0.0500000   0.3500000   0.4000000), wk =   0.0060000
        k(  197) = (   0.0500000   0.3500000   0.4500000), wk =   0.0060000
        k(  198) = (   0.0500000   0.3500000  -0.5000000), wk =   0.0030000
        k(  199) = (   0.0500000   0.4000000   0.0000000), wk =   0.0030000
        k(  200) = (   0.0500000   0.4000000   0.0500000), wk =   0.0060000
        k(  201) = (   0.0500000   0.4000000   0.1000000), wk =   0.0060000
        k(  202) = (   0.0500000   0.4000000   0.1500000), wk =   0.0060000
        k(  203) = (   0.0500000   0.4000000   0.2000000), wk =   0.0060000
        k(  204) = (   0.0500000   0.4000000   0.2500000), wk =   0.0060000
        k(  205) = (   0.0500000   0.4000000   0.3000000), wk =   0.0060000
        k(  206) = (   0.0500000   0.4000000   0.3500000), wk =   0.0060000
        k(  207) = (   0.0500000   0.4000000   0.4000000), wk =   0.0060000
        k(  208) = (   0.0500000   0.4000000   0.4500000), wk =   0.0060000
        k(  209) = (   0.0500000   0.4000000  -0.5000000), wk =   0.0030000
        k(  210) = (   0.0500000   0.4500000   0.0000000), wk =   0.0030000
        k(  211) = (   0.0500000   0.4500000   0.0500000), wk =   0.0060000
        k(  212) = (   0.0500000   0.4500000   0.1000000), wk =   0.0060000
        k(  213) = (   0.0500000   0.4500000   0.1500000), wk =   0.0060000
        k(  214) = (   0.0500000   0.4500000   0.2000000), wk =   0.0060000
        k(  215) = (   0.0500000   0.4500000   0.2500000), wk =   0.0060000
        k(  216) = (   0.0500000   0.4500000   0.3000000), wk =   0.0060000
        k(  217) = (   0.0500000   0.4500000   0.3500000), wk =   0.0060000
        k(  218) = (   0.0500000   0.4500000   0.4000000), wk =   0.0060000
        k(  219) = (   0.0500000   0.4500000   0.4500000), wk =   0.0060000
        k(  220) = (   0.0500000   0.4500000  -0.5000000), wk =   0.0030000
        k(  221) = (   0.1000000   0.1000000   0.0000000), wk =   0.0015000
        k(  222) = (   0.1000000   0.1000000   0.0500000), wk =   0.0030000
        k(  223) = (   0.1000000   0.1000000   0.1000000), wk =   0.0030000
        k(  224) = (   0.1000000   0.1000000   0.1500000), wk =   0.0030000
        k(  225) = (   0.1000000   0.1000000   0.2000000), wk =   0.0030000
        k(  226) = (   0.1000000   0.1000000   0.2500000), wk =   0.0030000
        k(  227) = (   0.1000000   0.1000000   0.3000000), wk =   0.0030000
        k(  228) = (   0.1000000   0.1000000   0.3500000), wk =   0.0030000
        k(  229) = (   0.1000000   0.1000000   0.4000000), wk =   0.0030000
        k(  230) = (   0.1000000   0.1000000   0.4500000), wk =   0.0030000
        k(  231) = (   0.1000000   0.1000000  -0.5000000), wk =   0.0015000
        k(  232) = (   0.1000000   0.1500000   0.0000000), wk =   0.0030000
        k(  233) = (   0.1000000   0.1500000   0.0500000), wk =   0.0060000
        k(  234) = (   0.1000000   0.1500000   0.1000000), wk =   0.0060000
        k(  235) = (   0.1000000   0.1500000   0.1500000), wk =   0.0060000
        k(  236) = (   0.1000000   0.1500000   0.2000000), wk =   0.0060000
        k(  237) = (   0.1000000   0.1500000   0.2500000), wk =   0.0060000
        k(  238) = (   0.1000000   0.1500000   0.3000000), wk =   0.0060000
        k(  239) = (   0.1000000   0.1500000   0.3500000), wk =   0.0060000
        k(  240) = (   0.1000000   0.1500000   0.4000000), wk =   0.0060000
        k(  241) = (   0.1000000   0.1500000   0.4500000), wk =   0.0060000
        k(  242) = (   0.1000000   0.1500000  -0.5000000), wk =   0.0030000
        k(  243) = (   0.1000000   0.2000000   0.0000000), wk =   0.0030000
        k(  244) = (   0.1000000   0.2000000   0.0500000), wk =   0.0060000
        k(  245) = (   0.1000000   0.2000000   0.1000000), wk =   0.0060000
        k(  246) = (   0.1000000   0.2000000   0.1500000), wk =   0.0060000
        k(  247) = (   0.1000000   0.2000000   0.2000000), wk =   0.0060000
        k(  248) = (   0.1000000   0.2000000   0.2500000), wk =   0.0060000
        k(  249) = (   0.1000000   0.2000000   0.3000000), wk =   0.0060000
        k(  250) = (   0.1000000   0.2000000   0.3500000), wk =   0.0060000
        k(  251) = (   0.1000000   0.2000000   0.4000000), wk =   0.0060000
        k(  252) = (   0.1000000   0.2000000   0.4500000), wk =   0.0060000
        k(  253) = (   0.1000000   0.2000000  -0.5000000), wk =   0.0030000
        k(  254) = (   0.1000000   0.2500000   0.0000000), wk =   0.0030000
        k(  255) = (   0.1000000   0.2500000   0.0500000), wk =   0.0060000
        k(  256) = (   0.1000000   0.2500000   0.1000000), wk =   0.0060000
        k(  257) = (   0.1000000   0.2500000   0.1500000), wk =   0.0060000
        k(  258) = (   0.1000000   0.2500000   0.2000000), wk =   0.0060000
        k(  259) = (   0.1000000   0.2500000   0.2500000), wk =   0.0060000
        k(  260) = (   0.1000000   0.2500000   0.3000000), wk =   0.0060000
        k(  261) = (   0.1000000   0.2500000   0.3500000), wk =   0.0060000
        k(  262) = (   0.1000000   0.2500000   0.4000000), wk =   0.0060000
        k(  263) = (   0.1000000   0.2500000   0.4500000), wk =   0.0060000
        k(  264) = (   0.1000000   0.2500000  -0.5000000), wk =   0.0030000
        k(  265) = (   0.1000000   0.3000000   0.0000000), wk =   0.0030000
        k(  266) = (   0.1000000   0.3000000   0.0500000), wk =   0.0060000
        k(  267) = (   0.1000000   0.3000000   0.1000000), wk =   0.0060000
        k(  268) = (   0.1000000   0.3000000   0.1500000), wk =   0.0060000
        k(  269) = (   0.1000000   0.3000000   0.2000000), wk =   0.0060000
        k(  270) = (   0.1000000   0.3000000   0.2500000), wk =   0.0060000
        k(  271) = (   0.1000000   0.3000000   0.3000000), wk =   0.0060000
        k(  272) = (   0.1000000   0.3000000   0.3500000), wk =   0.0060000
        k(  273) = (   0.1000000   0.3000000   0.4000000), wk =   0.0060000
        k(  274) = (   0.1000000   0.3000000   0.4500000), wk =   0.0060000
        k(  275) = (   0.1000000   0.3000000  -0.5000000), wk =   0.0030000
        k(  276) = (   0.1000000   0.3500000   0.0000000), wk =   0.0030000
        k(  277) = (   0.1000000   0.3500000   0.0500000), wk =   0.0060000
        k(  278) = (   0.1000000   0.3500000   0.1000000), wk =   0.0060000
        k(  279) = (   0.1000000   0.3500000   0.1500000), wk =   0.0060000
        k(  280) = (   0.1000000   0.3500000   0.2000000), wk =   0.0060000
        k(  281) = (   0.1000000   0.3500000   0.2500000), wk =   0.0060000
        k(  282) = (   0.1000000   0.3500000   0.3000000), wk =   0.0060000
        k(  283) = (   0.1000000   0.3500000   0.3500000), wk =   0.0060000
        k(  284) = (   0.1000000   0.3500000   0.4000000), wk =   0.0060000
        k(  285) = (   0.1000000   0.3500000   0.4500000), wk =   0.0060000
        k(  286) = (   0.1000000   0.3500000  -0.5000000), wk =   0.0030000
        k(  287) = (   0.1000000   0.4000000   0.0000000), wk =   0.0030000
        k(  288) = (   0.1000000   0.4000000   0.0500000), wk =   0.0060000
        k(  289) = (   0.1000000   0.4000000   0.1000000), wk =   0.0060000
        k(  290) = (   0.1000000   0.4000000   0.1500000), wk =   0.0060000
        k(  291) = (   0.1000000   0.4000000   0.2000000), wk =   0.0060000
        k(  292) = (   0.1000000   0.4000000   0.2500000), wk =   0.0060000
        k(  293) = (   0.1000000   0.4000000   0.3000000), wk =   0.0060000
        k(  294) = (   0.1000000   0.4000000   0.3500000), wk =   0.0060000
        k(  295) = (   0.1000000   0.4000000   0.4000000), wk =   0.0060000
        k(  296) = (   0.1000000   0.4000000   0.4500000), wk =   0.0060000
        k(  297) = (   0.1000000   0.4000000  -0.5000000), wk =   0.0030000
        k(  298) = (   0.1000000   0.4500000   0.0000000), wk =   0.0015000
        k(  299) = (   0.1000000   0.4500000   0.0500000), wk =   0.0030000
        k(  300) = (   0.1000000   0.4500000   0.1000000), wk =   0.0030000
        k(  301) = (   0.1000000   0.4500000   0.1500000), wk =   0.0030000
        k(  302) = (   0.1000000   0.4500000   0.2000000), wk =   0.0030000
        k(  303) = (   0.1000000   0.4500000   0.2500000), wk =   0.0030000
        k(  304) = (   0.1000000   0.4500000   0.3000000), wk =   0.0030000
        k(  305) = (   0.1000000   0.4500000   0.3500000), wk =   0.0030000
        k(  306) = (   0.1000000   0.4500000   0.4000000), wk =   0.0030000
        k(  307) = (   0.1000000   0.4500000   0.4500000), wk =   0.0030000
        k(  308) = (   0.1000000   0.4500000  -0.5000000), wk =   0.0015000
        k(  309) = (   0.1500000   0.1500000   0.0000000), wk =   0.0015000
        k(  310) = (   0.1500000   0.1500000   0.0500000), wk =   0.0030000
        k(  311) = (   0.1500000   0.1500000   0.1000000), wk =   0.0030000
        k(  312) = (   0.1500000   0.1500000   0.1500000), wk =   0.0030000
        k(  313) = (   0.1500000   0.1500000   0.2000000), wk =   0.0030000
        k(  314) = (   0.1500000   0.1500000   0.2500000), wk =   0.0030000
        k(  315) = (   0.1500000   0.1500000   0.3000000), wk =   0.0030000
        k(  316) = (   0.1500000   0.1500000   0.3500000), wk =   0.0030000
        k(  317) = (   0.1500000   0.1500000   0.4000000), wk =   0.0030000
        k(  318) = (   0.1500000   0.1500000   0.4500000), wk =   0.0030000
        k(  319) = (   0.1500000   0.1500000  -0.5000000), wk =   0.0015000
        k(  320) = (   0.1500000   0.2000000   0.0000000), wk =   0.0030000
        k(  321) = (   0.1500000   0.2000000   0.0500000), wk =   0.0060000
        k(  322) = (   0.1500000   0.2000000   0.1000000), wk =   0.0060000
        k(  323) = (   0.1500000   0.2000000   0.1500000), wk =   0.0060000
        k(  324) = (   0.1500000   0.2000000   0.2000000), wk =   0.0060000
        k(  325) = (   0.1500000   0.2000000   0.2500000), wk =   0.0060000
        k(  326) = (   0.1500000   0.2000000   0.3000000), wk =   0.0060000
        k(  327) = (   0.1500000   0.2000000   0.3500000), wk =   0.0060000
        k(  328) = (   0.1500000   0.2000000   0.4000000), wk =   0.0060000
        k(  329) = (   0.1500000   0.2000000   0.4500000), wk =   0.0060000
        k(  330) = (   0.1500000   0.2000000  -0.5000000), wk =   0.0030000
        k(  331) = (   0.1500000   0.2500000   0.0000000), wk =   0.0030000
        k(  332) = (   0.1500000   0.2500000   0.0500000), wk =   0.0060000
        k(  333) = (   0.1500000   0.2500000   0.1000000), wk =   0.0060000
        k(  334) = (   0.1500000   0.2500000   0.1500000), wk =   0.0060000
        k(  335) = (   0.1500000   0.2500000   0.2000000), wk =   0.0060000
        k(  336) = (   0.1500000   0.2500000   0.2500000), wk =   0.0060000
        k(  337) = (   0.1500000   0.2500000   0.3000000), wk =   0.0060000
        k(  338) = (   0.1500000   0.2500000   0.3500000), wk =   0.0060000
        k(  339) = (   0.1500000   0.2500000   0.4000000), wk =   0.0060000
        k(  340) = (   0.1500000   0.2500000   0.4500000), wk =   0.0060000
        k(  341) = (   0.1500000   0.2500000  -0.5000000), wk =   0.0030000
        k(  342) = (   0.1500000   0.3000000   0.0000000), wk =   0.0030000
        k(  343) = (   0.1500000   0.3000000   0.0500000), wk =   0.0060000
        k(  344) = (   0.1500000   0.3000000   0.1000000), wk =   0.0060000
        k(  345) = (   0.1500000   0.3000000   0.1500000), wk =   0.0060000
        k(  346) = (   0.1500000   0.3000000   0.2000000), wk =   0.0060000
        k(  347) = (   0.1500000   0.3000000   0.2500000), wk =   0.0060000
        k(  348) = (   0.1500000   0.3000000   0.3000000), wk =   0.0060000
        k(  349) = (   0.1500000   0.3000000   0.3500000), wk =   0.0060000
        k(  350) = (   0.1500000   0.3000000   0.4000000), wk =   0.0060000
        k(  351) = (   0.1500000   0.3000000   0.4500000), wk =   0.0060000
        k(  352) = (   0.1500000   0.3000000  -0.5000000), wk =   0.0030000
        k(  353) = (   0.1500000   0.3500000   0.0000000), wk =   0.0030000
        k(  354) = (   0.1500000   0.3500000   0.0500000), wk =   0.0060000
        k(  355) = (   0.1500000   0.3500000   0.1000000), wk =   0.0060000
        k(  356) = (   0.1500000   0.3500000   0.1500000), wk =   0.0060000
        k(  357) = (   0.1500000   0.3500000   0.2000000), wk =   0.0060000
        k(  358) = (   0.1500000   0.3500000   0.2500000), wk =   0.0060000
        k(  359) = (   0.1500000   0.3500000   0.3000000), wk =   0.0060000
        k(  360) = (   0.1500000   0.3500000   0.3500000), wk =   0.0060000
        k(  361) = (   0.1500000   0.3500000   0.4000000), wk =   0.0060000
        k(  362) = (   0.1500000   0.3500000   0.4500000), wk =   0.0060000
        k(  363) = (   0.1500000   0.3500000  -0.5000000), wk =   0.0030000
        k(  364) = (   0.1500000   0.4000000   0.0000000), wk =   0.0030000
        k(  365) = (   0.1500000   0.4000000   0.0500000), wk =   0.0060000
        k(  366) = (   0.1500000   0.4000000   0.1000000), wk =   0.0060000
        k(  367) = (   0.1500000   0.4000000   0.1500000), wk =   0.0060000
        k(  368) = (   0.1500000   0.4000000   0.2000000), wk =   0.0060000
        k(  369) = (   0.1500000   0.4000000   0.2500000), wk =   0.0060000
        k(  370) = (   0.1500000   0.4000000   0.3000000), wk =   0.0060000
        k(  371) = (   0.1500000   0.4000000   0.3500000), wk =   0.0060000
        k(  372) = (   0.1500000   0.4000000   0.4000000), wk =   0.0060000
        k(  373) = (   0.1500000   0.4000000   0.4500000), wk =   0.0060000
        k(  374) = (   0.1500000   0.4000000  -0.5000000), wk =   0.0030000
        k(  375) = (   0.2000000   0.2000000   0.0000000), wk =   0.0015000
        k(  376) = (   0.2000000   0.2000000   0.0500000), wk =   0.0030000
        k(  377) = (   0.2000000   0.2000000   0.1000000), wk =   0.0030000
        k(  378) = (   0.2000000   0.2000000   0.1500000), wk =   0.0030000
        k(  379) = (   0.2000000   0.2000000   0.2000000), wk =   0.0030000
        k(  380) = (   0.2000000   0.2000000   0.2500000), wk =   0.0030000
        k(  381) = (   0.2000000   0.2000000   0.3000000), wk =   0.0030000
        k(  382) = (   0.2000000   0.2000000   0.3500000), wk =   0.0030000
        k(  383) = (   0.2000000   0.2000000   0.4000000), wk =   0.0030000
        k(  384) = (   0.2000000   0.2000000   0.4500000), wk =   0.0030000
        k(  385) = (   0.2000000   0.2000000  -0.5000000), wk =   0.0015000
        k(  386) = (   0.2000000   0.2500000   0.0000000), wk =   0.0030000
        k(  387) = (   0.2000000   0.2500000   0.0500000), wk =   0.0060000
        k(  388) = (   0.2000000   0.2500000   0.1000000), wk =   0.0060000
        k(  389) = (   0.2000000   0.2500000   0.1500000), wk =   0.0060000
        k(  390) = (   0.2000000   0.2500000   0.2000000), wk =   0.0060000
        k(  391) = (   0.2000000   0.2500000   0.2500000), wk =   0.0060000
        k(  392) = (   0.2000000   0.2500000   0.3000000), wk =   0.0060000
        k(  393) = (   0.2000000   0.2500000   0.3500000), wk =   0.0060000
        k(  394) = (   0.2000000   0.2500000   0.4000000), wk =   0.0060000
        k(  395) = (   0.2000000   0.2500000   0.4500000), wk =   0.0060000
        k(  396) = (   0.2000000   0.2500000  -0.5000000), wk =   0.0030000
        k(  397) = (   0.2000000   0.3000000   0.0000000), wk =   0.0030000
        k(  398) = (   0.2000000   0.3000000   0.0500000), wk =   0.0060000
        k(  399) = (   0.2000000   0.3000000   0.1000000), wk =   0.0060000
        k(  400) = (   0.2000000   0.3000000   0.1500000), wk =   0.0060000
        k(  401) = (   0.2000000   0.3000000   0.2000000), wk =   0.0060000
        k(  402) = (   0.2000000   0.3000000   0.2500000), wk =   0.0060000
        k(  403) = (   0.2000000   0.3000000   0.3000000), wk =   0.0060000
        k(  404) = (   0.2000000   0.3000000   0.3500000), wk =   0.0060000
        k(  405) = (   0.2000000   0.3000000   0.4000000), wk =   0.0060000
        k(  406) = (   0.2000000   0.3000000   0.4500000), wk =   0.0060000
        k(  407) = (   0.2000000   0.3000000  -0.5000000), wk =   0.0030000
        k(  408) = (   0.2000000   0.3500000   0.0000000), wk =   0.0030000
        k(  409) = (   0.2000000   0.3500000   0.0500000), wk =   0.0060000
        k(  410) = (   0.2000000   0.3500000   0.1000000), wk =   0.0060000
        k(  411) = (   0.2000000   0.3500000   0.1500000), wk =   0.0060000
        k(  412) = (   0.2000000   0.3500000   0.2000000), wk =   0.0060000
        k(  413) = (   0.2000000   0.3500000   0.2500000), wk =   0.0060000
[...]
     1.0000   1.0000   1.0000   1.0000   1.0000   1.0000   1.0000   1.0000
     1.0000   1.0000   1.0000   1.0000   1.0000   1.0000   1.0000   1.0000
     1.0000   1.0000

          k = 0.2500 0.4907 0.1844 ( 27073 PWs)   bands (ev):

    -4.3637  -4.3117  -2.8735  -2.8225  -2.7896  -2.7400  -2.6924  -2.6765
    -2.6371  -2.6207  -1.2137  -0.8006   4.5013   4.9096   6.3624   7.6403
     8.1656   9.1013

     occupation numbers 
     1.0000   1.0000   1.0000   1.0000   1.0000   1.0000   1.0000   1.0000
     1.0000   1.0000   1.0000   1.0000   1.0000   1.0000   1.0000   1.0000
     1.0000   1.0000

          k = 0.2500 0.4907 0.2151 ( 27060 PWs)   bands (ev):

    -4.3509  -4.3109  -2.8579  -2.8275  -2.7999  -2.7487  -2.6925  -2.6806
    -2.6347  -2.6191  -1.1724  -0.8525   4.4657   4.7915   6.4745   7.4693
     8.4378   9.1882

     occupation numbers 
     1.0000   1.0000   1.0000   1.0000   1.0000   1.0000   1.0000   1.0000
     1.0000   1.0000   1.0000   1.0000   1.0000   1.0000   1.0000   1.0000
     1.0000   1.0000

          k = 0.2500 0.4907 0.2459 ( 27071 PWs)   bands (ev):

    -4.3390  -4.3119  -2.8434  -2.8300  -2.8068  -2.7607  -2.6925  -2.6853
    -2.6304  -2.6188  -1.1258  -0.9076   4.4572   4.6836   6.6093   7.2881
     8.6921   9.2178

     occupation numbers 
     1.0000   1.0000   1.0000   1.0000   1.0000   1.0000   1.0000   1.0000
     1.0000   1.0000   1.0000   1.0000   1.0000   1.0000   1.0000   1.0000
     1.0000   1.0000

          k = 0.2500 0.4907 0.2766 ( 27070 PWs)   bands (ev):

    -4.3288  -4.3151  -2.8351  -2.8302  -2.8046  -2.7757  -2.6922  -2.6889
    -2.6260  -2.6199  -1.0748  -0.9642   4.4763   4.5922   6.7624   7.1063
     8.9100   9.1811

     occupation numbers 
     1.0000   1.0000   1.0000   1.0000   1.0000   1.0000   1.0000   1.0000
     1.0000   1.0000   1.0000   1.0000   1.0000   1.0000   1.0000   1.0000
     1.0000   1.0000

          k = 0.2500 0.4907-0.3073 ( 27054 PWs)   bands (ev):

    -4.3207  -4.3207  -2.8320  -2.8320  -2.7916  -2.7916  -2.6911  -2.6911
    -2.6224  -2.6224  -1.0204  -1.0204   4.5220   4.5220   6.9295   6.9295
     9.0767   9.0767

     occupation numbers 
     1.0000   1.0000   1.0000   1.0000   1.0000   1.0000   1.0000   1.0000
     1.0000   1.0000   1.0000   1.0000   1.0000   1.0000   1.0000   1.0000
     1.0000   1.0000

          k = 0.2500 0.5485 0.0000 ( 27068 PWs)   bands (ev):

    -4.3894  -4.3284  -2.9280  -2.7759  -2.7233  -2.7158  -2.7084  -2.6924
    -2.6472  -2.6089  -1.1121  -0.7241   4.8401   5.4236   5.9005   7.1960
     8.0726   8.1952

     occupation numbers 
     1.0000   1.0000   1.0000   1.0000   1.0000   1.0000   1.0000   1.0000
     1.0000   1.0000   1.0000   1.0000   1.0000   1.0000   1.0000   1.0000
     1.0000   1.0000

          k = 0.2500 0.5485 0.0307 ( 27070 PWs)   bands (ev):

    -4.3879  -4.3277  -2.9264  -2.7782  -2.7273  -2.7148  -2.7103  -2.6869
    -2.6469  -2.6104  -1.1099  -0.7264   4.8217   5.3977   5.8982   7.2444
     8.0846   8.2002

     occupation numbers 
     1.0000   1.0000   1.0000   1.0000   1.0000   1.0000   1.0000   1.0000
     1.0000   1.0000   1.0000   1.0000   1.0000   1.0000   1.0000   1.0000
     1.0000   1.0000

          k = 0.2500 0.5485 0.0615 ( 27062 PWs)   bands (ev):

    -4.3836  -4.3257  -2.9218  -2.7844  -2.7379  -2.7161  -2.7068  -2.6779
    -2.6459  -2.6148  -1.1036  -0.7333   4.7699   5.3243   5.8997   7.3797
     8.0561   8.2736

     occupation numbers 
     1.0000   1.0000   1.0000   1.0000   1.0000   1.0000   1.0000   1.0000
     1.0000   1.0000   1.0000   1.0000   1.0000   1.0000   1.0000   1.0000
     1.0000   1.0000

          k = 0.2500 0.5485 0.0922 ( 27079 PWs)   bands (ev):

    -4.3767  -4.3226  -2.9141  -2.7926  -2.7515  -2.7182  -2.7008  -2.6698
    -2.6441  -2.6217  -1.0931  -0.7447   4.6947   5.2142   5.9200   7.5782
     7.9669   8.4210

     occupation numbers 
     1.0000   1.0000   1.0000   1.0000   1.0000   1.0000   1.0000   1.0000
     1.0000   1.0000   1.0000   1.0000   1.0000   1.0000   1.0000   1.0000
     1.0000   1.0000

          k = 0.2500 0.5485 0.1229 ( 27074 PWs)   bands (ev):

    -4.3678  -4.3188  -2.9037  -2.8014  -2.7658  -2.7211  -2.6947  -2.6636
    -2.6417  -2.6295  -1.0785  -0.7604   4.6096   5.0818   5.9682   7.7877
     7.8702   8.6002

     occupation numbers 
     1.0000   1.0000   1.0000   1.0000   1.0000   1.0000   1.0000   1.0000
     1.0000   1.0000   1.0000   1.0000   1.0000   1.0000   1.0000   1.0000
     1.0000   1.0000

          k = 0.2500 0.5485 0.1537 ( 27062 PWs)   bands (ev):

    -4.3575  -4.3148  -2.8908  -2.8096  -2.7798  -2.7257  -2.6896  -2.6604
    -2.6408  -2.6345  -1.0601  -0.7804   4.5277   4.9411   6.0452   7.6751
     8.0897   8.7845

     occupation numbers 
     1.0000   1.0000   1.0000   1.0000   1.0000   1.0000   1.0000   1.0000
     1.0000   1.0000   1.0000   1.0000   1.0000   1.0000   1.0000   1.0000
     1.0000   1.0000

          k = 0.2500 0.5485 0.1844 ( 27064 PWs)   bands (ev):

    -4.3467  -4.3113  -2.8758  -2.8165  -2.7930  -2.7331  -2.6857  -2.6620
    -2.6420  -2.6332  -1.0380  -0.8041   4.4593   4.8037   6.1485   7.5041
     8.3520   8.9517

     occupation numbers 
     1.0000   1.0000   1.0000   1.0000   1.0000   1.0000   1.0000   1.0000
     1.0000   1.0000   1.0000   1.0000   1.0000   1.0000   1.0000   1.0000
     1.0000   1.0000

          k = 0.2500 0.5485 0.2151 ( 27062 PWs)   bands (ev):

    -4.3362  -4.3089  -2.8595  -2.8212  -2.8046  -2.7439  -2.6829  -2.6670
    -2.6400  -2.6312  -1.0126  -0.8310   4.4116   4.6782   6.2749   7.3203
     8.6024   9.0827

     occupation numbers 
     1.0000   1.0000   1.0000   1.0000   1.0000   1.0000   1.0000   1.0000
     1.0000   1.0000   1.0000   1.0000   1.0000   1.0000   1.0000   1.0000
     1.0000   1.0000

          k = 0.2500 0.5485 0.2459 ( 27058 PWs)   bands (ev):

    -4.3266  -4.3081  -2.8440  -2.8224  -2.8133  -2.7583  -2.6810  -2.6717
    -2.6368  -2.6301  -0.9846  -0.8604   4.3888   4.5706   6.4208   7.1311
     8.8239   9.1611

     occupation numbers 
     1.0000   1.0000   1.0000   1.0000   1.0000   1.0000   1.0000   1.0000
     1.0000   1.0000   1.0000   1.0000   1.0000   1.0000   1.0000   1.0000
     1.0000   1.0000

          k = 0.2500 0.5485 0.2766 ( 27060 PWs)   bands (ev):

    -4.3187  -4.3093  -2.8344  -2.8245  -2.8096  -2.7754  -2.6793  -2.6752
    -2.6337  -2.6301  -0.9544  -0.8914   4.3933   4.4855   6.5829   6.9420
     9.0014   9.1757

     occupation numbers 
     1.0000   1.0000   1.0000   1.0000   1.0000   1.0000   1.0000   1.0000
     1.0000   1.0000   1.0000   1.0000   1.0000   1.0000   1.0000   1.0000
     1.0000   1.0000

          k = 0.2500 0.5485-0.3073 ( 27078 PWs)   bands (ev):

    -4.3128  -4.3128  -2.8295  -2.8295  -2.7934  -2.7934  -2.6775  -2.6775
    -2.6314  -2.6314  -0.9231  -0.9231   4.4258   4.4258   6.7579   6.7579
     9.1216   9.1216

     occupation numbers 
     1.0000   1.0000   1.0000   1.0000   1.0000   1.0000   1.0000   1.0000
     1.0000   1.0000   1.0000   1.0000   1.0000   1.0000   1.0000   1.0000
     1.0000   1.0000

          k = 0.3000 0.5196 0.0000 ( 27069 PWs)   bands (ev):

    -4.3804  -4.3322  -2.9311  -2.7560  -2.7251  -2.7221  -2.7084  -2.6958
    -2.6509  -2.6120  -1.0911  -0.7103   5.0921   5.2175   5.8154   7.2408
     8.0433   8.0656

     occupation numbers 
     1.0000   1.0000   1.0000   1.0000   1.0000   1.0000   1.0000   1.0000
     1.0000   1.0000   1.0000   1.0000   1.0000   1.0000   1.0000   1.0000
     1.0000   1.0000

          k = 0.3000 0.5196 0.0307 ( 27066 PWs)   bands (ev):

    -4.3790  -4.3314  -2.9295  -2.7598  -2.7296  -2.7219  -2.7053  -2.6929
    -2.6504  -2.6137  -1.0889  -0.7126   5.0636   5.2093   5.8053   7.2889
     8.0219   8.1045

     occupation numbers 
     1.0000   1.0000   1.0000   1.0000   1.0000   1.0000   1.0000   1.0000
     1.0000   1.0000   1.0000   1.0000   1.0000   1.0000   1.0000   1.0000
     1.0000   1.0000

          k = 0.3000 0.5196 0.0615 ( 27080 PWs)   bands (ev):

    -4.3749  -4.3292  -2.9248  -2.7686  -2.7398  -2.7220  -2.6978  -2.6876
    -2.6486  -2.6184  -1.0825  -0.7192   4.9871   5.1796   5.7869   7.4225
     7.9595   8.2133

     occupation numbers 
     1.0000   1.0000   1.0000   1.0000   1.0000   1.0000   1.0000   1.0000
     1.0000   1.0000   1.0000   1.0000   1.0000   1.0000   1.0000   1.0000
     1.0000   1.0000

          k = 0.3000 0.5196 0.0922 ( 27097 PWs)   bands (ev):

    -4.3684  -4.3257  -2.9170  -2.7792  -2.7521  -2.7229  -2.6887  -2.6832
    -2.6458  -2.6258  -1.0720  -0.7303   4.8826   5.1191   5.7857   7.6140
     7.8660   8.3723

     occupation numbers 
     1.0000   1.0000   1.0000   1.0000   1.0000   1.0000   1.0000   1.0000
     1.0000   1.0000   1.0000   1.0000   1.0000   1.0000   1.0000   1.0000
     1.0000   1.0000

          k = 0.3000 0.5196 0.1229 ( 27082 PWs)   bands (ev):

    -4.3601  -4.3214  -2.9064  -2.7901  -2.7650  -2.7249  -2.6805  -2.6800
    -2.6422  -2.6347  -1.0574  -0.7456   4.7703   5.0272   5.8195   7.6940
     7.8922   8.5580

     occupation numbers 
     1.0000   1.0000   1.0000   1.0000   1.0000   1.0000   1.0000   1.0000
     1.0000   1.0000   1.0000   1.0000   1.0000   1.0000   1.0000   1.0000
     1.0000   1.0000

          k = 0.3000 0.5196 0.1537 ( 27074 PWs)   bands (ev):

    -4.3506  -4.3169  -2.8932  -2.8002  -2.7778  -2.7288  -2.6793  -2.6731
    -2.6431  -2.6384  -1.0389  -0.7649   4.6649   4.9156   5.8902   7.5492
     8.1378   8.7483

     occupation numbers 
     1.0000   1.0000   1.0000   1.0000   1.0000   1.0000   1.0000   1.0000
     1.0000   1.0000   1.0000   1.0000   1.0000   1.0000   1.0000   1.0000
     1.0000   1.0000

          k = 0.3000 0.5196 0.1844 ( 27086 PWs)   bands (ev):

    -4.3406  -4.3127  -2.8776  -2.8089  -2.7896  -2.7354  -2.6791  -2.6711
    -2.6470  -2.6352  -1.0169  -0.7878   4.5766   4.7996   5.9923   7.3743
     8.3968   8.9225

     occupation numbers 
     1.0000   1.0000   1.0000   1.0000   1.0000   1.0000   1.0000   1.0000
     1.0000   1.0000   1.0000   1.0000   1.0000   1.0000   1.0000   1.0000
     1.0000   1.0000

          k = 0.3000 0.5196 0.2151 ( 27061 PWs)   bands (ev):

    -4.3309  -4.3095  -2.8603  -2.8158  -2.7998  -2.7460  -2.6794  -2.6740
    -2.6450  -2.6329  -0.9917  -0.8139   4.5113   4.6910   6.1199   7.1866
     8.6421   9.0620

     occupation numbers 
     1.0000   1.0000   1.0000   1.0000   1.0000   1.0000   1.0000   1.0000
     1.0000   1.0000   1.0000   1.0000   1.0000   1.0000   1.0000   1.0000
     1.0000   1.0000

          k = 0.3000 0.5196 0.2459 ( 27052 PWs)   bands (ev):

    -4.3223  -4.3077  -2.8421  -2.8204  -2.8075  -2.7604  -2.6800  -2.6775
    -2.6408  -2.6319  -0.9640  -0.8425   4.4728   4.5984   6.2684   6.9934
     8.8566   9.1507

     occupation numbers 
     1.0000   1.0000   1.0000   1.0000   1.0000   1.0000   1.0000   1.0000
     1.0000   1.0000   1.0000   1.0000   1.0000   1.0000   1.0000   1.0000
     1.0000   1.0000

          k = 0.3000 0.5196 0.2766 ( 27055 PWs)   bands (ev):

    -4.3154  -4.3080  -2.8266  -2.8227  -2.8091  -2.7778  -2.6805  -2.6797
    -2.6368  -2.6322  -0.9343  -0.8727   4.4627   4.5272   6.4339   6.8004
     9.0249   9.1767

     occupation numbers 
     1.0000   1.0000   1.0000   1.0000   1.0000   1.0000   1.0000   1.0000
     1.0000   1.0000   1.0000   1.0000   1.0000   1.0000   1.0000   1.0000
     1.0000   1.0000

          k = 0.3000 0.5196-0.3073 ( 27064 PWs)   bands (ev):

    -4.3105  -4.3105  -2.8231  -2.8231  -2.7961  -2.7961  -2.6805  -2.6805
    -2.6339  -2.6339  -0.9036  -0.9036   4.4812   4.4812   6.6125   6.6125
     9.1343   9.1343

     occupation numbers 
     1.0000   1.0000   1.0000   1.0000   1.0000   1.0000   1.0000   1.0000
     1.0000   1.0000   1.0000   1.0000   1.0000   1.0000   1.0000   1.0000
     1.0000   1.0000

          k = 0.3000 0.5774 0.0000 ( 27054 PWs)   bands (ev):

    -4.3636  -4.3406  -2.9336  -2.7466  -2.7224  -2.7182  -2.7070  -2.6988
    -2.6580  -2.6133  -0.9470  -0.7948   5.1060   5.3847   5.5031   7.4801
     7.8321   7.9584

     occupation numbers 
     1.0000   1.0000   1.0000   1.0000   1.0000   1.0000   1.0000   1.0000
     1.0000   1.0000   1.0000   1.0000   1.0000   1.0000   1.0000   1.0000
     1.0000   1.0000

          k = 0.3000 0.5774 0.0307 ( 27073 PWs)   bands (ev):

    -4.3624  -4.3396  -2.9320  -2.7506  -2.7288  -2.7182  -2.7036  -2.6933
    -2.6581  -2.6150  -0.9459  -0.7954   5.0870   5.3548   5.5051   7.5259
     7.8672   7.9428

     occupation numbers 
     1.0000   1.0000   1.0000   1.0000   1.0000   1.0000   1.0000   1.0000
     1.0000   1.0000   1.0000   1.0000   1.0000   1.0000   1.0000   1.0000
     1.0000   1.0000

          k = 0.3000 0.5774 0.0615 ( 27074 PWs)   bands (ev):

    -4.3588  -4.3370  -2.9272  -2.7597  -2.7409  -2.7186  -2.6961  -2.6835
    -2.6582  -2.6199  -0.9427  -0.7973   5.0292   5.2725   5.5201   7.6544
     7.8572   8.0041

     occupation numbers 
     1.0000   1.0000   1.0000   1.0000   1.0000   1.0000   1.0000   1.0000
     1.0000   1.0000   1.0000   1.0000   1.0000   1.0000   1.0000   1.0000
     1.0000   1.0000

          k = 0.3000 0.5774 0.0922 ( 27082 PWs)   bands (ev):

    -4.3532  -4.3328  -2.9194  -2.7706  -2.7543  -2.7198  -2.6877  -2.6737
    -2.6583  -2.6276  -0.9375  -0.8005   4.9385   5.1552   5.5606   7.7568
     7.8439   8.1719

     occupation numbers 
     1.0000   1.0000   1.0000   1.0000   1.0000   1.0000   1.0000   1.0000
     1.0000   1.0000   1.0000   1.0000   1.0000   1.0000   1.0000   1.0000
     1.0000   1.0000

          k = 0.3000 0.5774 0.1229 ( 27085 PWs)   bands (ev):

    -4.3461  -4.3276  -2.9085  -2.7819  -2.7678  -2.7220  -2.6803  -2.6652
    -2.6578  -2.6371  -0.9303  -0.8052   4.8307   5.0214   5.6299   7.6206
     8.0707   8.3742

     occupation numbers 
     1.0000   1.0000   1.0000   1.0000   1.0000   1.0000   1.0000   1.0000
     1.0000   1.0000   1.0000   1.0000   1.0000   1.0000   1.0000   1.0000
     1.0000   1.0000

          k = 0.3000 0.5774 0.1537 ( 27082 PWs)   bands (ev):

    -4.3380  -4.3218  -2.8950  -2.7925  -2.7806  -2.7262  -2.6751  -2.6588
    -2.6562  -2.6465  -0.9214  -0.8113   4.7221   4.8861   5.7255   7.4583
     8.3133   8.5864

     occupation numbers 
     1.0000   1.0000   1.0000   1.0000   1.0000   1.0000   1.0000   1.0000
     1.0000   1.0000   1.0000   1.0000   1.0000   1.0000   1.0000   1.0000
     1.0000   1.0000

          k = 0.3000 0.5774 0.1844 ( 27078 PWs)   bands (ev):

    -4.3296  -4.3162  -2.8791  -2.8018  -2.7923  -2.7336  -2.6726  -2.6602
    -2.6529  -2.6487  -0.9110  -0.8188   4.6250   4.7603   5.8443   7.2774
     8.5531   8.7879

     occupation numbers 
     1.0000   1.0000   1.0000   1.0000   1.0000   1.0000   1.0000   1.0000
     1.0000   1.0000   1.0000   1.0000   1.0000   1.0000   1.0000   1.0000
     1.0000   1.0000

          k = 0.3000 0.5774 0.2151 ( 27080 PWs)   bands (ev):

    -4.3217  -4.3114  -2.8613  -2.8093  -2.8023  -2.7450  -2.6721  -2.6664
    -2.6490  -2.6453  -0.8994  -0.8278   4.5473   4.6516   5.9836   7.0851
     8.7725   8.9603

     occupation numbers 
     1.0000   1.0000   1.0000   1.0000   1.0000   1.0000   1.0000   1.0000
     1.0000   1.0000   1.0000   1.0000   1.0000   1.0000   1.0000   1.0000
     1.0000   1.0000

          k = 0.3000 0.5774 0.2459 ( 27074 PWs)   bands (ev):

    -4.3150  -4.3080  -2.8420  -2.8143  -2.8103  -2.7605  -2.6725  -2.6706
    -2.6454  -2.6425  -0.8871  -0.8381   4.4942   4.5652   6.1407   6.8875
     8.9551   9.0870

     occupation numbers 
     1.0000   1.0000   1.0000   1.0000   1.0000   1.0000   1.0000   1.0000
     1.0000   1.0000   1.0000   1.0000   1.0000   1.0000   1.0000   1.0000
     1.0000   1.0000

          k = 0.3000 0.5774 0.2766 ( 27049 PWs)   bands (ev):

    -4.3100  -4.3065  -2.8240  -2.8159  -2.8147  -2.7790  -2.6730  -2.6727
    -2.6427  -2.6412  -0.8744  -0.8495   4.4687   4.5046   6.3129   6.6899
     9.0863   9.1545

     occupation numbers 
     1.0000   1.0000   1.0000   1.0000   1.0000   1.0000   1.0000   1.0000
     1.0000   1.0000   1.0000   1.0000   1.0000   1.0000   1.0000   1.0000
     1.0000   1.0000

          k = 0.3000 0.5774-0.3073 ( 27030 PWs)   bands (ev):

    -4.3071  -4.3071  -2.8190  -2.8190  -2.7988  -2.7988  -2.6733  -2.6733
    -2.6412  -2.6412  -0.8617  -0.8617   4.4721   4.4721   6.4971   6.4971
     9.1547   9.1547

     occupation numbers 
     1.0000   1.0000   1.0000   1.0000   1.0000   1.0000   1.0000   1.0000
     1.0000   1.0000   1.0000   1.0000   1.0000   1.0000   1.0000   1.0000
     1.0000   1.0000

     highest occupied level (ev):    10.6183

!    total energy              =    -347.51880321 Ry
     estimated scf accuracy    <       0.00000022 Ry

     The total energy is the sum of the following terms:
     one-electron contribution =    -105.66901761 Ry
     hartree contribution      =      87.58455175 Ry
     xc contribution           =     -96.27751045 Ry
     ewald contribution        =    -233.15682690 Ry

     convergence has been achieved in  17 iterations

     Writing output data file ../tmp/GaN_exc1.save/
 
     init_run     :     22.02s CPU     22.61s WALL (       1 calls)
     electrons    :    793.53s CPU    799.84s WALL (       1 calls)

     Called by init_run:
     wfcinit      :     20.83s CPU     21.33s WALL (       1 calls)
     wfcinit:atom :      0.57s CPU      0.58s WALL (     484 calls)
     wfcinit:wfcr :     17.64s CPU     17.79s WALL (     484 calls)
     potinit      :      0.29s CPU      0.29s WALL (       1 calls)
     hinit0       :      0.60s CPU      0.67s WALL (       1 calls)

     Called by electrons:
     c_bands      :    675.30s CPU    680.10s WALL (      17 calls)
     sum_band     :    117.17s CPU    118.55s WALL (      17 calls)
     v_of_rho     :      0.84s CPU      0.91s WALL (      18 calls)
     v_h          :      0.04s CPU      0.04s WALL (      18 calls)
     v_xc         :      0.80s CPU      0.87s WALL (      18 calls)
     mix_rho      :      0.23s CPU      0.27s WALL (      17 calls)

     Called by c_bands:
     init_us_2    :     26.59s CPU     27.02s WALL (   16940 calls)
     cegterg      :    587.87s CPU    591.86s WALL (    8228 calls)

     Called by sum_band:
     sum_band:wei :      0.00s CPU      0.00s WALL (      17 calls)
     sum_band:loo :    117.03s CPU    118.40s WALL (      17 calls)
     sum_band:buf :      3.01s CPU      3.45s WALL (    8228 calls)
     sum_band:ini :     12.82s CPU     13.07s WALL (    8228 calls)

     Called by *egterg:
     cdiaghg      :     18.71s CPU     18.83s WALL (   26158 calls)
     cegterg:over :     25.99s CPU     26.11s WALL (   17930 calls)
     cegterg:upda :     17.66s CPU     17.78s WALL (   17930 calls)
     cegterg:last :     27.96s CPU     28.04s WALL (   14203 calls)
     cdiaghg:chol :      2.27s CPU      2.29s WALL (   26158 calls)
     cdiaghg:inve :      0.46s CPU      0.47s WALL (   26158 calls)
     cdiaghg:para :      2.08s CPU      2.07s WALL (   52316 calls)
     h_psi        :    493.56s CPU    497.28s WALL (   26642 calls)
     g_psi        :      3.16s CPU      3.18s WALL (   17930 calls)

     Called by h_psi:
     h_psi:calbec :     24.79s CPU     24.93s WALL (   26642 calls)
     vloc_psi     :    425.95s CPU    429.41s WALL (   26642 calls)
     add_vuspsi   :     36.77s CPU     36.89s WALL (   26642 calls)

     General routines
     calbec       :     24.69s CPU     24.87s WALL (   26642 calls)
     fft          :      0.38s CPU      0.45s WALL (     180 calls)
     ffts         :      0.02s CPU      0.02s WALL (      17 calls)
     fftw         :    398.75s CPU    401.75s WALL (  885704 calls)
 
     Parallel routines
 
     PWSCF        :  13m37.71s CPU  13m50.12s WALL

 
   This run was terminated on:  18:50:21  27Mar2023            

=------------------------------------------------------------------------------=
   JOB DONE.
=------------------------------------------------------------------------------=
