
     Program PWSCF v.6.8 starts on 27Mar2023 at 18:57:55 

     This program is part of the open-source Quantum ESPRESSO suite
     for quantum simulation of materials; please cite
         "P. Giannozzi et al., J. Phys.:Condens. Matter 21 395502 (2009);
         "P. Giannozzi et al., J. Phys.:Condens. Matter 29 465901 (2017);
         "P. Giannozzi et al., J. Chem. Phys. 152 154105 (2020);
          URL http://www.quantum-espresso.org", 
     in publications or presentations arising from this work. More details at
     http://www.quantum-espresso.org/quote

     Parallel version (MPI & OpenMP), running on       6 processor cores
     Number of MPI processes:                 6
     Threads/MPI process:                     1

     MPI processes distributed on     1 nodes
     R & G space division:  proc/nbgrp/npool/nimage =       6
     17807 MiB available memory on the printing compute node when the environment starts
 
     Waiting for input...
     Reading input from standard input
Warning: card &CELL ignored
Warning: card / ignored

     Current dimensions of program PWSCF are:
     Max number of different atomic species (ntypx) = 10
     Max number of k-points (npk) =  40000
     Max angular momentum in pseudopotentials (lmaxx) =  4

     Subspace diagonalization in iterative solution of the eigenvalue problem:
     one sub-group per band group will be used
     scalapack distributed-memory algorithm (size of sub-group:  2*  2 procs)

 
     Parallelization info
     --------------------
     sticks:   dense  smooth     PW     G-vecs:    dense   smooth      PW
     Min         751     751    201                66341    66341    9195
     Max         752     752    203                66350    66350    9197
     Sum        4507    4507   1213               398059   398059   55173
 
     Using Slab Decomposition
 


     bravais-lattice index     =            4
     lattice parameter (alat)  =       6.0282  a.u.
     unit-cell volume          =     308.6570 (a.u.)^3
     number of atoms/cell      =            4
     number of atomic types    =            2
     number of electrons       =        36.00
     number of Kohn-Sham states=           18
     kinetic-energy cutoff     =     450.0000  Ry
     charge density cutoff     =    1800.0000  Ry
     scf convergence threshold =      1.0E-06
     mixing beta               =       0.7000
     number of iterations used =            8  plain     mixing
     Exchange-correlation= PBE
                           (   1   4   3   4   0   0   0)

     celldm(1)=   6.028226  celldm(2)=   0.000000  celldm(3)=   1.626960
     celldm(4)=   0.000000  celldm(5)=   0.000000  celldm(6)=   0.000000

     crystal axes: (cart. coord. in units of alat)
               a(1) = (   1.000000   0.000000   0.000000 )  
               a(2) = (  -0.500000   0.866025   0.000000 )  
               a(3) = (   0.000000   0.000000   1.626960 )  

     reciprocal axes: (cart. coord. in units 2 pi/alat)
               b(1) = (  1.000000  0.577350  0.000000 )  
               b(2) = (  0.000000  1.154701  0.000000 )  
               b(3) = (  0.000000  0.000000  0.614643 )  


     PseudoPot. # 1 for Ga read from file:
     ../pseudo/Ga_ONCV_PBE_sr.upf
     MD5 check sum: e3654b1fbeb096be7359f640ef9d98d7
     Pseudo is Norm-conserving + core correction, Zval = 13.0
     Generated using ONCVPSP code by D. R. Hamann
     Using radial grid of 1902 points,  6 beta functions with: 
                l(1) =   0
                l(2) =   0
                l(3) =   1
                l(4) =   1
                l(5) =   2
                l(6) =   2

     PseudoPot. # 2 for N  read from file:
     ../pseudo/N_ONCV_PBE_sr.upf
     MD5 check sum: 18c6af81dac9c5a2d6d52ed11cf7bfee
     Pseudo is Norm-conserving + core correction, Zval =  5.0
     Generated using ONCVPSP code by D. R. Hamann
     Using radial grid of 1058 points,  4 beta functions with: 
                l(1) =   0
                l(2) =   0
                l(3) =   1
                l(4) =   1

     atomic species   valence    mass     pseudopotential
        Ga            13.00    69.72300     Ga( 1.00)
        N              5.00    14.00700     N ( 1.00)

     12 Sym. Ops. (no inversion) found ( 6 have fractional translation)


                                    s                        frac. trans.

      isym =  1     identity                                     

 cryst.   s( 1) = (     1          0          0      )
                  (     0          1          0      )
                  (     0          0          1      )

 cart.    s( 1) = (  1.0000000  0.0000000  0.0000000 )
                  (  0.0000000  1.0000000  0.0000000 )
                  (  0.0000000  0.0000000  1.0000000 )


      isym =  2     180 deg rotation - cart. axis [0,0,1]        

 cryst.   s( 2) = (    -1          0          0      )    f =(  0.0000000 )
                  (     0         -1          0      )       (  0.0000000 )
                  (     0          0          1      )       ( -0.5000000 )

 cart.    s( 2) = ( -1.0000000  0.0000000  0.0000000 )    f =(  0.0000000 )
                  (  0.0000000 -1.0000000  0.0000000 )       (  0.0000000 )
                  (  0.0000000  0.0000000  1.0000000 )       ( -0.8134800 )


      isym =  3      60 deg rotation - cryst. axis [0,0,1]       

 cryst.   s( 3) = (     1          1          0      )    f =(  0.0000000 )
                  (    -1          0          0      )       (  0.0000000 )
                  (     0          0          1      )       ( -0.5000000 )

 cart.    s( 3) = (  0.5000000 -0.8660254  0.0000000 )    f =(  0.0000000 )
                  (  0.8660254  0.5000000  0.0000000 )       (  0.0000000 )
                  (  0.0000000  0.0000000  1.0000000 )       ( -0.8134800 )


      isym =  4      60 deg rotation - cryst. axis [0,0,-1]      

 cryst.   s( 4) = (     0         -1          0      )    f =(  0.0000000 )
                  (     1          1          0      )       (  0.0000000 )
                  (     0          0          1      )       ( -0.5000000 )

 cart.    s( 4) = (  0.5000000  0.8660254  0.0000000 )    f =(  0.0000000 )
                  ( -0.8660254  0.5000000  0.0000000 )       (  0.0000000 )
                  (  0.0000000  0.0000000  1.0000000 )       ( -0.8134800 )


      isym =  5     120 deg rotation - cryst. axis [0,0,1]       

 cryst.   s( 5) = (     0          1          0      )
                  (    -1         -1          0      )
                  (     0          0          1      )

 cart.    s( 5) = ( -0.5000000 -0.8660254  0.0000000 )
                  (  0.8660254 -0.5000000  0.0000000 )
                  (  0.0000000  0.0000000  1.0000000 )


      isym =  6     120 deg rotation - cryst. axis [0,0,-1]      

 cryst.   s( 6) = (    -1         -1          0      )
                  (     1          0          0      )
                  (     0          0          1      )

 cart.    s( 6) = ( -0.5000000  0.8660254  0.0000000 )
                  ( -0.8660254 -0.5000000  0.0000000 )
                  (  0.0000000  0.0000000  1.0000000 )


      isym =  7     inv. 180 deg rotation - cart. axis [0,1,0]   

 cryst.   s( 7) = (     1          0          0      )    f =(  0.0000000 )
                  (    -1         -1          0      )       (  0.0000000 )
                  (     0          0          1      )       ( -0.5000000 )

 cart.    s( 7) = (  1.0000000  0.0000000  0.0000000 )    f =(  0.0000000 )
                  (  0.0000000 -1.0000000  0.0000000 )       (  0.0000000 )
                  (  0.0000000  0.0000000  1.0000000 )       ( -0.8134800 )


      isym =  8     inv. 180 deg rotation - cart. axis [1,0,0]   

 cryst.   s( 8) = (    -1          0          0      )
                  (     1          1          0      )
                  (     0          0          1      )

 cart.    s( 8) = ( -1.0000000  0.0000000  0.0000000 )
                  (  0.0000000  1.0000000  0.0000000 )
                  (  0.0000000  0.0000000  1.0000000 )


      isym =  9     inv. 180 deg rotation - cryst. axis [1,-1,0] 

 cryst.   s( 9) = (     0          1          0      )    f =(  0.0000000 )
                  (     1          0          0      )       (  0.0000000 )
                  (     0          0          1      )       ( -0.5000000 )

 cart.    s( 9) = ( -0.5000000  0.8660254  0.0000000 )    f =(  0.0000000 )
                  (  0.8660254  0.5000000  0.0000000 )       (  0.0000000 )
                  (  0.0000000  0.0000000  1.0000000 )       ( -0.8134800 )


      isym = 10     inv. 180 deg rotation - cryst. axis [2,1,0]  

 cryst.   s(10) = (    -1         -1          0      )    f =(  0.0000000 )
                  (     0          1          0      )       (  0.0000000 )
                  (     0          0          1      )       ( -0.5000000 )

 cart.    s(10) = ( -0.5000000 -0.8660254  0.0000000 )    f =(  0.0000000 )
                  ( -0.8660254  0.5000000  0.0000000 )       (  0.0000000 )
                  (  0.0000000  0.0000000  1.0000000 )       ( -0.8134800 )


      isym = 11     inv. 180 deg rotation - cryst. axis [0,1,0]  

 cryst.   s(11) = (     1          1          0      )
                  (     0         -1          0      )
                  (     0          0          1      )

 cart.    s(11) = (  0.5000000  0.8660254  0.0000000 )
                  (  0.8660254 -0.5000000  0.0000000 )
                  (  0.0000000  0.0000000  1.0000000 )


      isym = 12     inv. 180 deg rotation - cryst. axis [1,1,0]  

 cryst.   s(12) = (     0         -1          0      )
                  (    -1          0          0      )
                  (     0          0          1      )

 cart.    s(12) = (  0.5000000 -0.8660254  0.0000000 )
                  ( -0.8660254 -0.5000000  0.0000000 )
                  (  0.0000000  0.0000000  1.0000000 )


     point group C_6v (6mm) 
     there are  6 classes
     the character table:

       E     2C6   2C3   C2    3s_v  3s_d 
A_1    1.00  1.00  1.00  1.00  1.00  1.00
A_2    1.00  1.00  1.00  1.00 -1.00 -1.00
B_1    1.00 -1.00  1.00 -1.00  1.00 -1.00
B_2    1.00 -1.00  1.00 -1.00 -1.00  1.00
E_1    2.00  1.00 -1.00 -2.00  0.00  0.00
E_2    2.00 -1.00 -1.00  2.00  0.00  0.00

     the symmetry operations in each class and the name of the first element:

     E        1
          identity                                               
     2C6      3    4
           60 deg rotation - cryst. axis [0,0,1]                 
     2C3      5    6
          120 deg rotation - cryst. axis [0,0,1]                 
     C2       2
          180 deg rotation - cart. axis [0,0,1]                  
     3s_v     8   12   11
          inv. 180 deg rotation - cart. axis [1,0,0]             
     3s_d     7    9   10
          inv. 180 deg rotation - cart. axis [0,1,0]             

   Cartesian axes

     site n.     atom                  positions (alat units)
         1           Ga  tau(   1) = (   0.5000000   0.2886751   0.8119892  )
         2           Ga  tau(   2) = (   0.0000000   0.5773503   1.6254692  )
         3           N   tau(   3) = (   0.5000000   0.2886751   1.4250808  )
         4           N   tau(   4) = (   0.0000000   0.5773503   0.6116008  )

   Crystallographic axes

     site n.     atom                  positions (cryst. coord.)
         1           Ga  tau(   1) = (  0.6666667  0.3333333  0.4990837  )
         2           Ga  tau(   2) = (  0.3333333  0.6666667  0.9990837  )
         3           N   tau(   3) = (  0.6666667  0.3333333  0.8759163  )
         4           N   tau(   4) = (  0.3333333  0.6666667  0.3759163  )

     number of k points=   484
                       cart. coord. in units 2pi/alat
        k(    1) = (   0.0000000   0.0000000   0.0000000), wk =   0.0002500
        k(    2) = (   0.0000000   0.0000000   0.0307322), wk =   0.0005000
        k(    3) = (   0.0000000   0.0000000   0.0614643), wk =   0.0005000
        k(    4) = (   0.0000000   0.0000000   0.0921965), wk =   0.0005000
        k(    5) = (   0.0000000   0.0000000   0.1229287), wk =   0.0005000
        k(    6) = (   0.0000000   0.0000000   0.1536608), wk =   0.0005000
        k(    7) = (   0.0000000   0.0000000   0.1843930), wk =   0.0005000
        k(    8) = (   0.0000000   0.0000000   0.2151251), wk =   0.0005000
        k(    9) = (   0.0000000   0.0000000   0.2458573), wk =   0.0005000
        k(   10) = (   0.0000000   0.0000000   0.2765895), wk =   0.0005000
        k(   11) = (   0.0000000   0.0000000  -0.3073216), wk =   0.0002500
        k(   12) = (   0.0000000   0.0577350   0.0000000), wk =   0.0015000
        k(   13) = (   0.0000000   0.0577350   0.0307322), wk =   0.0030000
        k(   14) = (   0.0000000   0.0577350   0.0614643), wk =   0.0030000
        k(   15) = (   0.0000000   0.0577350   0.0921965), wk =   0.0030000
        k(   16) = (   0.0000000   0.0577350   0.1229287), wk =   0.0030000
        k(   17) = (   0.0000000   0.0577350   0.1536608), wk =   0.0030000
        k(   18) = (   0.0000000   0.0577350   0.1843930), wk =   0.0030000
        k(   19) = (   0.0000000   0.0577350   0.2151251), wk =   0.0030000
        k(   20) = (   0.0000000   0.0577350   0.2458573), wk =   0.0030000
        k(   21) = (   0.0000000   0.0577350   0.2765895), wk =   0.0030000
        k(   22) = (   0.0000000   0.0577350  -0.3073216), wk =   0.0015000
        k(   23) = (   0.0000000   0.1154701   0.0000000), wk =   0.0015000
        k(   24) = (   0.0000000   0.1154701   0.0307322), wk =   0.0030000
        k(   25) = (   0.0000000   0.1154701   0.0614643), wk =   0.0030000
        k(   26) = (   0.0000000   0.1154701   0.0921965), wk =   0.0030000
        k(   27) = (   0.0000000   0.1154701   0.1229287), wk =   0.0030000
        k(   28) = (   0.0000000   0.1154701   0.1536608), wk =   0.0030000
        k(   29) = (   0.0000000   0.1154701   0.1843930), wk =   0.0030000
        k(   30) = (   0.0000000   0.1154701   0.2151251), wk =   0.0030000
        k(   31) = (   0.0000000   0.1154701   0.2458573), wk =   0.0030000
        k(   32) = (   0.0000000   0.1154701   0.2765895), wk =   0.0030000
        k(   33) = (   0.0000000   0.1154701  -0.3073216), wk =   0.0015000
        k(   34) = (   0.0000000   0.1732051   0.0000000), wk =   0.0015000
        k(   35) = (   0.0000000   0.1732051   0.0307322), wk =   0.0030000
        k(   36) = (   0.0000000   0.1732051   0.0614643), wk =   0.0030000
        k(   37) = (   0.0000000   0.1732051   0.0921965), wk =   0.0030000
        k(   38) = (   0.0000000   0.1732051   0.1229287), wk =   0.0030000
        k(   39) = (   0.0000000   0.1732051   0.1536608), wk =   0.0030000
        k(   40) = (   0.0000000   0.1732051   0.1843930), wk =   0.0030000
        k(   41) = (   0.0000000   0.1732051   0.2151251), wk =   0.0030000
        k(   42) = (   0.0000000   0.1732051   0.2458573), wk =   0.0030000
        k(   43) = (   0.0000000   0.1732051   0.2765895), wk =   0.0030000
        k(   44) = (   0.0000000   0.1732051  -0.3073216), wk =   0.0015000
        k(   45) = (   0.0000000   0.2309401   0.0000000), wk =   0.0015000
        k(   46) = (   0.0000000   0.2309401   0.0307322), wk =   0.0030000
        k(   47) = (   0.0000000   0.2309401   0.0614643), wk =   0.0030000
        k(   48) = (   0.0000000   0.2309401   0.0921965), wk =   0.0030000
        k(   49) = (   0.0000000   0.2309401   0.1229287), wk =   0.0030000
        k(   50) = (   0.0000000   0.2309401   0.1536608), wk =   0.0030000
        k(   51) = (   0.0000000   0.2309401   0.1843930), wk =   0.0030000
        k(   52) = (   0.0000000   0.2309401   0.2151251), wk =   0.0030000
        k(   53) = (   0.0000000   0.2309401   0.2458573), wk =   0.0030000
        k(   54) = (   0.0000000   0.2309401   0.2765895), wk =   0.0030000
        k(   55) = (   0.0000000   0.2309401  -0.3073216), wk =   0.0015000
        k(   56) = (   0.0000000   0.2886751   0.0000000), wk =   0.0015000
        k(   57) = (   0.0000000   0.2886751   0.0307322), wk =   0.0030000
        k(   58) = (   0.0000000   0.2886751   0.0614643), wk =   0.0030000
        k(   59) = (   0.0000000   0.2886751   0.0921965), wk =   0.0030000
        k(   60) = (   0.0000000   0.2886751   0.1229287), wk =   0.0030000
        k(   61) = (   0.0000000   0.2886751   0.1536608), wk =   0.0030000
        k(   62) = (   0.0000000   0.2886751   0.1843930), wk =   0.0030000
        k(   63) = (   0.0000000   0.2886751   0.2151251), wk =   0.0030000
        k(   64) = (   0.0000000   0.2886751   0.2458573), wk =   0.0030000
        k(   65) = (   0.0000000   0.2886751   0.2765895), wk =   0.0030000
        k(   66) = (   0.0000000   0.2886751  -0.3073216), wk =   0.0015000
        k(   67) = (   0.0000000   0.3464102   0.0000000), wk =   0.0015000
        k(   68) = (   0.0000000   0.3464102   0.0307322), wk =   0.0030000
        k(   69) = (   0.0000000   0.3464102   0.0614643), wk =   0.0030000
        k(   70) = (   0.0000000   0.3464102   0.0921965), wk =   0.0030000
        k(   71) = (   0.0000000   0.3464102   0.1229287), wk =   0.0030000
        k(   72) = (   0.0000000   0.3464102   0.1536608), wk =   0.0030000
        k(   73) = (   0.0000000   0.3464102   0.1843930), wk =   0.0030000
        k(   74) = (   0.0000000   0.3464102   0.2151251), wk =   0.0030000
        k(   75) = (   0.0000000   0.3464102   0.2458573), wk =   0.0030000
        k(   76) = (   0.0000000   0.3464102   0.2765895), wk =   0.0030000
        k(   77) = (   0.0000000   0.3464102  -0.3073216), wk =   0.0015000
        k(   78) = (   0.0000000   0.4041452   0.0000000), wk =   0.0015000
        k(   79) = (   0.0000000   0.4041452   0.0307322), wk =   0.0030000
        k(   80) = (   0.0000000   0.4041452   0.0614643), wk =   0.0030000
        k(   81) = (   0.0000000   0.4041452   0.0921965), wk =   0.0030000
        k(   82) = (   0.0000000   0.4041452   0.1229287), wk =   0.0030000
        k(   83) = (   0.0000000   0.4041452   0.1536608), wk =   0.0030000
        k(   84) = (   0.0000000   0.4041452   0.1843930), wk =   0.0030000
        k(   85) = (   0.0000000   0.4041452   0.2151251), wk =   0.0030000
        k(   86) = (   0.0000000   0.4041452   0.2458573), wk =   0.0030000
        k(   87) = (   0.0000000   0.4041452   0.2765895), wk =   0.0030000
        k(   88) = (   0.0000000   0.4041452  -0.3073216), wk =   0.0015000
        k(   89) = (   0.0000000   0.4618802   0.0000000), wk =   0.0015000
        k(   90) = (   0.0000000   0.4618802   0.0307322), wk =   0.0030000
        k(   91) = (   0.0000000   0.4618802   0.0614643), wk =   0.0030000
        k(   92) = (   0.0000000   0.4618802   0.0921965), wk =   0.0030000
        k(   93) = (   0.0000000   0.4618802   0.1229287), wk =   0.0030000
        k(   94) = (   0.0000000   0.4618802   0.1536608), wk =   0.0030000
        k(   95) = (   0.0000000   0.4618802   0.1843930), wk =   0.0030000
        k(   96) = (   0.0000000   0.4618802   0.2151251), wk =   0.0030000
        k(   97) = (   0.0000000   0.4618802   0.2458573), wk =   0.0030000
        k(   98) = (   0.0000000   0.4618802   0.2765895), wk =   0.0030000
        k(   99) = (   0.0000000   0.4618802  -0.3073216), wk =   0.0015000
        k(  100) = (   0.0000000   0.5196152   0.0000000), wk =   0.0015000
        k(  101) = (   0.0000000   0.5196152   0.0307322), wk =   0.0030000
        k(  102) = (   0.0000000   0.5196152   0.0614643), wk =   0.0030000
        k(  103) = (   0.0000000   0.5196152   0.0921965), wk =   0.0030000
        k(  104) = (   0.0000000   0.5196152   0.1229287), wk =   0.0030000
        k(  105) = (   0.0000000   0.5196152   0.1536608), wk =   0.0030000
        k(  106) = (   0.0000000   0.5196152   0.1843930), wk =   0.0030000
        k(  107) = (   0.0000000   0.5196152   0.2151251), wk =   0.0030000
        k(  108) = (   0.0000000   0.5196152   0.2458573), wk =   0.0030000
        k(  109) = (   0.0000000   0.5196152   0.2765895), wk =   0.0030000
        k(  110) = (   0.0000000   0.5196152  -0.3073216), wk =   0.0015000
        k(  111) = (   0.0000000  -0.5773503   0.0000000), wk =   0.0007500
        k(  112) = (   0.0000000  -0.5773503   0.0307322), wk =   0.0015000
        k(  113) = (   0.0000000  -0.5773503   0.0614643), wk =   0.0015000
        k(  114) = (   0.0000000  -0.5773503   0.0921965), wk =   0.0015000
        k(  115) = (   0.0000000  -0.5773503   0.1229287), wk =   0.0015000
        k(  116) = (   0.0000000  -0.5773503   0.1536608), wk =   0.0015000
        k(  117) = (   0.0000000  -0.5773503   0.1843930), wk =   0.0015000
        k(  118) = (   0.0000000  -0.5773503   0.2151251), wk =   0.0015000
        k(  119) = (   0.0000000  -0.5773503   0.2458573), wk =   0.0015000
        k(  120) = (   0.0000000  -0.5773503   0.2765895), wk =   0.0015000
        k(  121) = (   0.0000000  -0.5773503  -0.3073216), wk =   0.0007500
        k(  122) = (   0.0500000   0.0866025   0.0000000), wk =   0.0015000
        k(  123) = (   0.0500000   0.0866025   0.0307322), wk =   0.0030000
        k(  124) = (   0.0500000   0.0866025   0.0614643), wk =   0.0030000
        k(  125) = (   0.0500000   0.0866025   0.0921965), wk =   0.0030000
        k(  126) = (   0.0500000   0.0866025   0.1229287), wk =   0.0030000
        k(  127) = (   0.0500000   0.0866025   0.1536608), wk =   0.0030000
        k(  128) = (   0.0500000   0.0866025   0.1843930), wk =   0.0030000
        k(  129) = (   0.0500000   0.0866025   0.2151251), wk =   0.0030000
        k(  130) = (   0.0500000   0.0866025   0.2458573), wk =   0.0030000
        k(  131) = (   0.0500000   0.0866025   0.2765895), wk =   0.0030000
        k(  132) = (   0.0500000   0.0866025  -0.3073216), wk =   0.0015000
        k(  133) = (   0.0500000   0.1443376   0.0000000), wk =   0.0030000
        k(  134) = (   0.0500000   0.1443376   0.0307322), wk =   0.0060000
        k(  135) = (   0.0500000   0.1443376   0.0614643), wk =   0.0060000
        k(  136) = (   0.0500000   0.1443376   0.0921965), wk =   0.0060000
        k(  137) = (   0.0500000   0.1443376   0.1229287), wk =   0.0060000
        k(  138) = (   0.0500000   0.1443376   0.1536608), wk =   0.0060000
        k(  139) = (   0.0500000   0.1443376   0.1843930), wk =   0.0060000
        k(  140) = (   0.0500000   0.1443376   0.2151251), wk =   0.0060000
        k(  141) = (   0.0500000   0.1443376   0.2458573), wk =   0.0060000
        k(  142) = (   0.0500000   0.1443376   0.2765895), wk =   0.0060000
        k(  143) = (   0.0500000   0.1443376  -0.3073216), wk =   0.0030000
        k(  144) = (   0.0500000   0.2020726   0.0000000), wk =   0.0030000
        k(  145) = (   0.0500000   0.2020726   0.0307322), wk =   0.0060000
        k(  146) = (   0.0500000   0.2020726   0.0614643), wk =   0.0060000
        k(  147) = (   0.0500000   0.2020726   0.0921965), wk =   0.0060000
        k(  148) = (   0.0500000   0.2020726   0.1229287), wk =   0.0060000
        k(  149) = (   0.0500000   0.2020726   0.1536608), wk =   0.0060000
        k(  150) = (   0.0500000   0.2020726   0.1843930), wk =   0.0060000
        k(  151) = (   0.0500000   0.2020726   0.2151251), wk =   0.0060000
        k(  152) = (   0.0500000   0.2020726   0.2458573), wk =   0.0060000
        k(  153) = (   0.0500000   0.2020726   0.2765895), wk =   0.0060000
        k(  154) = (   0.0500000   0.2020726  -0.3073216), wk =   0.0030000
        k(  155) = (   0.0500000   0.2598076   0.0000000), wk =   0.0030000
        k(  156) = (   0.0500000   0.2598076   0.0307322), wk =   0.0060000
        k(  157) = (   0.0500000   0.2598076   0.0614643), wk =   0.0060000
        k(  158) = (   0.0500000   0.2598076   0.0921965), wk =   0.0060000
        k(  159) = (   0.0500000   0.2598076   0.1229287), wk =   0.0060000
        k(  160) = (   0.0500000   0.2598076   0.1536608), wk =   0.0060000
        k(  161) = (   0.0500000   0.2598076   0.1843930), wk =   0.0060000
        k(  162) = (   0.0500000   0.2598076   0.2151251), wk =   0.0060000
        k(  163) = (   0.0500000   0.2598076   0.2458573), wk =   0.0060000
        k(  164) = (   0.0500000   0.2598076   0.2765895), wk =   0.0060000
        k(  165) = (   0.0500000   0.2598076  -0.3073216), wk =   0.0030000
        k(  166) = (   0.0500000   0.3175426   0.0000000), wk =   0.0030000
        k(  167) = (   0.0500000   0.3175426   0.0307322), wk =   0.0060000
        k(  168) = (   0.0500000   0.3175426   0.0614643), wk =   0.0060000
        k(  169) = (   0.0500000   0.3175426   0.0921965), wk =   0.0060000
        k(  170) = (   0.0500000   0.3175426   0.1229287), wk =   0.0060000
        k(  171) = (   0.0500000   0.3175426   0.1536608), wk =   0.0060000
        k(  172) = (   0.0500000   0.3175426   0.1843930), wk =   0.0060000
        k(  173) = (   0.0500000   0.3175426   0.2151251), wk =   0.0060000
        k(  174) = (   0.0500000   0.3175426   0.2458573), wk =   0.0060000
        k(  175) = (   0.0500000   0.3175426   0.2765895), wk =   0.0060000
        k(  176) = (   0.0500000   0.3175426  -0.3073216), wk =   0.0030000
        k(  177) = (   0.0500000   0.3752777   0.0000000), wk =   0.0030000
        k(  178) = (   0.0500000   0.3752777   0.0307322), wk =   0.0060000
        k(  179) = (   0.0500000   0.3752777   0.0614643), wk =   0.0060000
        k(  180) = (   0.0500000   0.3752777   0.0921965), wk =   0.0060000
        k(  181) = (   0.0500000   0.3752777   0.1229287), wk =   0.0060000
        k(  182) = (   0.0500000   0.3752777   0.1536608), wk =   0.0060000
        k(  183) = (   0.0500000   0.3752777   0.1843930), wk =   0.0060000
        k(  184) = (   0.0500000   0.3752777   0.2151251), wk =   0.0060000
        k(  185) = (   0.0500000   0.3752777   0.2458573), wk =   0.0060000
        k(  186) = (   0.0500000   0.3752777   0.2765895), wk =   0.0060000
        k(  187) = (   0.0500000   0.3752777  -0.3073216), wk =   0.0030000
        k(  188) = (   0.0500000   0.4330127   0.0000000), wk =   0.0030000
        k(  189) = (   0.0500000   0.4330127   0.0307322), wk =   0.0060000
        k(  190) = (   0.0500000   0.4330127   0.0614643), wk =   0.0060000
        k(  191) = (   0.0500000   0.4330127   0.0921965), wk =   0.0060000
        k(  192) = (   0.0500000   0.4330127   0.1229287), wk =   0.0060000
        k(  193) = (   0.0500000   0.4330127   0.1536608), wk =   0.0060000
        k(  194) = (   0.0500000   0.4330127   0.1843930), wk =   0.0060000
        k(  195) = (   0.0500000   0.4330127   0.2151251), wk =   0.0060000
        k(  196) = (   0.0500000   0.4330127   0.2458573), wk =   0.0060000
        k(  197) = (   0.0500000   0.4330127   0.2765895), wk =   0.0060000
        k(  198) = (   0.0500000   0.4330127  -0.3073216), wk =   0.0030000
        k(  199) = (   0.0500000   0.4907477   0.0000000), wk =   0.0030000
        k(  200) = (   0.0500000   0.4907477   0.0307322), wk =   0.0060000
        k(  201) = (   0.0500000   0.4907477   0.0614643), wk =   0.0060000
        k(  202) = (   0.0500000   0.4907477   0.0921965), wk =   0.0060000
        k(  203) = (   0.0500000   0.4907477   0.1229287), wk =   0.0060000
        k(  204) = (   0.0500000   0.4907477   0.1536608), wk =   0.0060000
        k(  205) = (   0.0500000   0.4907477   0.1843930), wk =   0.0060000
        k(  206) = (   0.0500000   0.4907477   0.2151251), wk =   0.0060000
        k(  207) = (   0.0500000   0.4907477   0.2458573), wk =   0.0060000
        k(  208) = (   0.0500000   0.4907477   0.2765895), wk =   0.0060000
        k(  209) = (   0.0500000   0.4907477  -0.3073216), wk =   0.0030000
        k(  210) = (   0.0500000   0.5484828   0.0000000), wk =   0.0030000
        k(  211) = (   0.0500000   0.5484828   0.0307322), wk =   0.0060000
        k(  212) = (   0.0500000   0.5484828   0.0614643), wk =   0.0060000
        k(  213) = (   0.0500000   0.5484828   0.0921965), wk =   0.0060000
        k(  214) = (   0.0500000   0.5484828   0.1229287), wk =   0.0060000
        k(  215) = (   0.0500000   0.5484828   0.1536608), wk =   0.0060000
        k(  216) = (   0.0500000   0.5484828   0.1843930), wk =   0.0060000
        k(  217) = (   0.0500000   0.5484828   0.2151251), wk =   0.0060000
        k(  218) = (   0.0500000   0.5484828   0.2458573), wk =   0.0060000
        k(  219) = (   0.0500000   0.5484828   0.2765895), wk =   0.0060000
        k(  220) = (   0.0500000   0.5484828  -0.3073216), wk =   0.0030000
        k(  221) = (   0.1000000   0.1732051   0.0000000), wk =   0.0015000
        k(  222) = (   0.1000000   0.1732051   0.0307322), wk =   0.0030000
        k(  223) = (   0.1000000   0.1732051   0.0614643), wk =   0.0030000
        k(  224) = (   0.1000000   0.1732051   0.0921965), wk =   0.0030000
        k(  225) = (   0.1000000   0.1732051   0.1229287), wk =   0.0030000
        k(  226) = (   0.1000000   0.1732051   0.1536608), wk =   0.0030000
        k(  227) = (   0.1000000   0.1732051   0.1843930), wk =   0.0030000
        k(  228) = (   0.1000000   0.1732051   0.2151251), wk =   0.0030000
        k(  229) = (   0.1000000   0.1732051   0.2458573), wk =   0.0030000
        k(  230) = (   0.1000000   0.1732051   0.2765895), wk =   0.0030000
        k(  231) = (   0.1000000   0.1732051  -0.3073216), wk =   0.0015000
        k(  232) = (   0.1000000   0.2309401   0.0000000), wk =   0.0030000
        k(  233) = (   0.1000000   0.2309401   0.0307322), wk =   0.0060000
        k(  234) = (   0.1000000   0.2309401   0.0614643), wk =   0.0060000
        k(  235) = (   0.1000000   0.2309401   0.0921965), wk =   0.0060000
        k(  236) = (   0.1000000   0.2309401   0.1229287), wk =   0.0060000
        k(  237) = (   0.1000000   0.2309401   0.1536608), wk =   0.0060000
        k(  238) = (   0.1000000   0.2309401   0.1843930), wk =   0.0060000
        k(  239) = (   0.1000000   0.2309401   0.2151251), wk =   0.0060000
        k(  240) = (   0.1000000   0.2309401   0.2458573), wk =   0.0060000
        k(  241) = (   0.1000000   0.2309401   0.2765895), wk =   0.0060000
        k(  242) = (   0.1000000   0.2309401  -0.3073216), wk =   0.0030000
        k(  243) = (   0.1000000   0.2886751   0.0000000), wk =   0.0030000
        k(  244) = (   0.1000000   0.2886751   0.0307322), wk =   0.0060000
        k(  245) = (   0.1000000   0.2886751   0.0614643), wk =   0.0060000
        k(  246) = (   0.1000000   0.2886751   0.0921965), wk =   0.0060000
        k(  247) = (   0.1000000   0.2886751   0.1229287), wk =   0.0060000
        k(  248) = (   0.1000000   0.2886751   0.1536608), wk =   0.0060000
        k(  249) = (   0.1000000   0.2886751   0.1843930), wk =   0.0060000
        k(  250) = (   0.1000000   0.2886751   0.2151251), wk =   0.0060000
        k(  251) = (   0.1000000   0.2886751   0.2458573), wk =   0.0060000
        k(  252) = (   0.1000000   0.2886751   0.2765895), wk =   0.0060000
        k(  253) = (   0.1000000   0.2886751  -0.3073216), wk =   0.0030000
        k(  254) = (   0.1000000   0.3464102   0.0000000), wk =   0.0030000
        k(  255) = (   0.1000000   0.3464102   0.0307322), wk =   0.0060000
        k(  256) = (   0.1000000   0.3464102   0.0614643), wk =   0.0060000
        k(  257) = (   0.1000000   0.3464102   0.0921965), wk =   0.0060000
        k(  258) = (   0.1000000   0.3464102   0.1229287), wk =   0.0060000
        k(  259) = (   0.1000000   0.3464102   0.1536608), wk =   0.0060000
        k(  260) = (   0.1000000   0.3464102   0.1843930), wk =   0.0060000
        k(  261) = (   0.1000000   0.3464102   0.2151251), wk =   0.0060000
        k(  262) = (   0.1000000   0.3464102   0.2458573), wk =   0.0060000
        k(  263) = (   0.1000000   0.3464102   0.2765895), wk =   0.0060000
        k(  264) = (   0.1000000   0.3464102  -0.3073216), wk =   0.0030000
        k(  265) = (   0.1000000   0.4041452   0.0000000), wk =   0.0030000
        k(  266) = (   0.1000000   0.4041452   0.0307322), wk =   0.0060000
        k(  267) = (   0.1000000   0.4041452   0.0614643), wk =   0.0060000
        k(  268) = (   0.1000000   0.4041452   0.0921965), wk =   0.0060000
        k(  269) = (   0.1000000   0.4041452   0.1229287), wk =   0.0060000
        k(  270) = (   0.1000000   0.4041452   0.1536608), wk =   0.0060000
        k(  271) = (   0.1000000   0.4041452   0.1843930), wk =   0.0060000
        k(  272) = (   0.1000000   0.4041452   0.2151251), wk =   0.0060000
        k(  273) = (   0.1000000   0.4041452   0.2458573), wk =   0.0060000
        k(  274) = (   0.1000000   0.4041452   0.2765895), wk =   0.0060000
        k(  275) = (   0.1000000   0.4041452  -0.3073216), wk =   0.0030000
        k(  276) = (   0.1000000   0.4618802   0.0000000), wk =   0.0030000
        k(  277) = (   0.1000000   0.4618802   0.0307322), wk =   0.0060000
        k(  278) = (   0.1000000   0.4618802   0.0614643), wk =   0.0060000
        k(  279) = (   0.1000000   0.4618802   0.0921965), wk =   0.0060000
        k(  280) = (   0.1000000   0.4618802   0.1229287), wk =   0.0060000
        k(  281) = (   0.1000000   0.4618802   0.1536608), wk =   0.0060000
        k(  282) = (   0.1000000   0.4618802   0.1843930), wk =   0.0060000
        k(  283) = (   0.1000000   0.4618802   0.2151251), wk =   0.0060000
        k(  284) = (   0.1000000   0.4618802   0.2458573), wk =   0.0060000
        k(  285) = (   0.1000000   0.4618802   0.2765895), wk =   0.0060000
        k(  286) = (   0.1000000   0.4618802  -0.3073216), wk =   0.0030000
        k(  287) = (   0.1000000   0.5196152   0.0000000), wk =   0.0030000
        k(  288) = (   0.1000000   0.5196152   0.0307322), wk =   0.0060000
        k(  289) = (   0.1000000   0.5196152   0.0614643), wk =   0.0060000
        k(  290) = (   0.1000000   0.5196152   0.0921965), wk =   0.0060000
        k(  291) = (   0.1000000   0.5196152   0.1229287), wk =   0.0060000
        k(  292) = (   0.1000000   0.5196152   0.1536608), wk =   0.0060000
        k(  293) = (   0.1000000   0.5196152   0.1843930), wk =   0.0060000
        k(  294) = (   0.1000000   0.5196152   0.2151251), wk =   0.0060000
        k(  295) = (   0.1000000   0.5196152   0.2458573), wk =   0.0060000
        k(  296) = (   0.1000000   0.5196152   0.2765895), wk =   0.0060000
        k(  297) = (   0.1000000   0.5196152  -0.3073216), wk =   0.0030000
        k(  298) = (   0.1000000   0.5773503   0.0000000), wk =   0.0015000
        k(  299) = (   0.1000000   0.5773503   0.0307322), wk =   0.0030000
        k(  300) = (   0.1000000   0.5773503   0.0614643), wk =   0.0030000
        k(  301) = (   0.1000000   0.5773503   0.0921965), wk =   0.0030000
        k(  302) = (   0.1000000   0.5773503   0.1229287), wk =   0.0030000
        k(  303) = (   0.1000000   0.5773503   0.1536608), wk =   0.0030000
        k(  304) = (   0.1000000   0.5773503   0.1843930), wk =   0.0030000
        k(  305) = (   0.1000000   0.5773503   0.2151251), wk =   0.0030000
        k(  306) = (   0.1000000   0.5773503   0.2458573), wk =   0.0030000
        k(  307) = (   0.1000000   0.5773503   0.2765895), wk =   0.0030000
        k(  308) = (   0.1000000   0.5773503  -0.3073216), wk =   0.0015000
        k(  309) = (   0.1500000   0.2598076   0.0000000), wk =   0.0015000
        k(  310) = (   0.1500000   0.2598076   0.0307322), wk =   0.0030000
        k(  311) = (   0.1500000   0.2598076   0.0614643), wk =   0.0030000
        k(  312) = (   0.1500000   0.2598076   0.0921965), wk =   0.0030000
        k(  313) = (   0.1500000   0.2598076   0.1229287), wk =   0.0030000
        k(  314) = (   0.1500000   0.2598076   0.1536608), wk =   0.0030000
        k(  315) = (   0.1500000   0.2598076   0.1843930), wk =   0.0030000
        k(  316) = (   0.1500000   0.2598076   0.2151251), wk =   0.0030000
        k(  317) = (   0.1500000   0.2598076   0.2458573), wk =   0.0030000
        k(  318) = (   0.1500000   0.2598076   0.2765895), wk =   0.0030000
        k(  319) = (   0.1500000   0.2598076  -0.3073216), wk =   0.0015000
        k(  320) = (   0.1500000   0.3175426   0.0000000), wk =   0.0030000
        k(  321) = (   0.1500000   0.3175426   0.0307322), wk =   0.0060000
        k(  322) = (   0.1500000   0.3175426   0.0614643), wk =   0.0060000
        k(  323) = (   0.1500000   0.3175426   0.0921965), wk =   0.0060000
        k(  324) = (   0.1500000   0.3175426   0.1229287), wk =   0.0060000
        k(  325) = (   0.1500000   0.3175426   0.1536608), wk =   0.0060000
        k(  326) = (   0.1500000   0.3175426   0.1843930), wk =   0.0060000
        k(  327) = (   0.1500000   0.3175426   0.2151251), wk =   0.0060000
        k(  328) = (   0.1500000   0.3175426   0.2458573), wk =   0.0060000
        k(  329) = (   0.1500000   0.3175426   0.2765895), wk =   0.0060000
        k(  330) = (   0.1500000   0.3175426  -0.3073216), wk =   0.0030000
        k(  331) = (   0.1500000   0.3752777   0.0000000), wk =   0.0030000
        k(  332) = (   0.1500000   0.3752777   0.0307322), wk =   0.0060000
        k(  333) = (   0.1500000   0.3752777   0.0614643), wk =   0.0060000
        k(  334) = (   0.1500000   0.3752777   0.0921965), wk =   0.0060000
        k(  335) = (   0.1500000   0.3752777   0.1229287), wk =   0.0060000
        k(  336) = (   0.1500000   0.3752777   0.1536608), wk =   0.0060000
        k(  337) = (   0.1500000   0.3752777   0.1843930), wk =   0.0060000
        k(  338) = (   0.1500000   0.3752777   0.2151251), wk =   0.0060000
        k(  339) = (   0.1500000   0.3752777   0.2458573), wk =   0.0060000
        k(  340) = (   0.1500000   0.3752777   0.2765895), wk =   0.0060000
        k(  341) = (   0.1500000   0.3752777  -0.3073216), wk =   0.0030000
        k(  342) = (   0.1500000   0.4330127   0.0000000), wk =   0.0030000
        k(  343) = (   0.1500000   0.4330127   0.0307322), wk =   0.0060000
        k(  344) = (   0.1500000   0.4330127   0.0614643), wk =   0.0060000
        k(  345) = (   0.1500000   0.4330127   0.0921965), wk =   0.0060000
        k(  346) = (   0.1500000   0.4330127   0.1229287), wk =   0.0060000
        k(  347) = (   0.1500000   0.4330127   0.1536608), wk =   0.0060000
        k(  348) = (   0.1500000   0.4330127   0.1843930), wk =   0.0060000
        k(  349) = (   0.1500000   0.4330127   0.2151251), wk =   0.0060000
        k(  350) = (   0.1500000   0.4330127   0.2458573), wk =   0.0060000
        k(  351) = (   0.1500000   0.4330127   0.2765895), wk =   0.0060000
        k(  352) = (   0.1500000   0.4330127  -0.3073216), wk =   0.0030000
        k(  353) = (   0.1500000   0.4907477   0.0000000), wk =   0.0030000
        k(  354) = (   0.1500000   0.4907477   0.0307322), wk =   0.0060000
        k(  355) = (   0.1500000   0.4907477   0.0614643), wk =   0.0060000
        k(  356) = (   0.1500000   0.4907477   0.0921965), wk =   0.0060000
        k(  357) = (   0.1500000   0.4907477   0.1229287), wk =   0.0060000
        k(  358) = (   0.1500000   0.4907477   0.1536608), wk =   0.0060000
        k(  359) = (   0.1500000   0.4907477   0.1843930), wk =   0.0060000
        k(  360) = (   0.1500000   0.4907477   0.2151251), wk =   0.0060000
        k(  361) = (   0.1500000   0.4907477   0.2458573), wk =   0.0060000
        k(  362) = (   0.1500000   0.4907477   0.2765895), wk =   0.0060000
        k(  363) = (   0.1500000   0.4907477  -0.3073216), wk =   0.0030000
        k(  364) = (   0.1500000   0.5484828   0.0000000), wk =   0.0030000
        k(  365) = (   0.1500000   0.5484828   0.0307322), wk =   0.0060000
        k(  366) = (   0.1500000   0.5484828   0.0614643), wk =   0.0060000
        k(  367) = (   0.1500000   0.5484828   0.0921965), wk =   0.0060000
        k(  368) = (   0.1500000   0.5484828   0.1229287), wk =   0.0060000
        k(  369) = (   0.1500000   0.5484828   0.1536608), wk =   0.0060000
        k(  370) = (   0.1500000   0.5484828   0.1843930), wk =   0.0060000
        k(  371) = (   0.1500000   0.5484828   0.2151251), wk =   0.0060000
        k(  372) = (   0.1500000   0.5484828   0.2458573), wk =   0.0060000
        k(  373) = (   0.1500000   0.5484828   0.2765895), wk =   0.0060000
        k(  374) = (   0.1500000   0.5484828  -0.3073216), wk =   0.0030000
        k(  375) = (   0.2000000   0.3464102   0.0000000), wk =   0.0015000
        k(  376) = (   0.2000000   0.3464102   0.0307322), wk =   0.0030000
        k(  377) = (   0.2000000   0.3464102   0.0614643), wk =   0.0030000
        k(  378) = (   0.2000000   0.3464102   0.0921965), wk =   0.0030000
        k(  379) = (   0.2000000   0.3464102   0.1229287), wk =   0.0030000
        k(  380) = (   0.2000000   0.3464102   0.1536608), wk =   0.0030000
        k(  381) = (   0.2000000   0.3464102   0.1843930), wk =   0.0030000
        k(  382) = (   0.2000000   0.3464102   0.2151251), wk =   0.0030000
        k(  383) = (   0.2000000   0.3464102   0.2458573), wk =   0.0030000
        k(  384) = (   0.2000000   0.3464102   0.2765895), wk =   0.0030000
        k(  385) = (   0.2000000   0.3464102  -0.3073216), wk =   0.0015000
        k(  386) = (   0.2000000   0.4041452   0.0000000), wk =   0.0030000
        k(  387) = (   0.2000000   0.4041452   0.0307322), wk =   0.0060000
        k(  388) = (   0.2000000   0.4041452   0.0614643), wk =   0.0060000
        k(  389) = (   0.2000000   0.4041452   0.0921965), wk =   0.0060000
        k(  390) = (   0.2000000   0.4041452   0.1229287), wk =   0.0060000
        k(  391) = (   0.2000000   0.4041452   0.1536608), wk =   0.0060000
        k(  392) = (   0.2000000   0.4041452   0.1843930), wk =   0.0060000
        k(  393) = (   0.2000000   0.4041452   0.2151251), wk =   0.0060000
        k(  394) = (   0.2000000   0.4041452   0.2458573), wk =   0.0060000
        k(  395) = (   0.2000000   0.4041452   0.2765895), wk =   0.0060000
        k(  396) = (   0.2000000   0.4041452  -0.3073216), wk =   0.0030000
        k(  397) = (   0.2000000   0.4618802   0.0000000), wk =   0.0030000
        k(  398) = (   0.2000000   0.4618802   0.0307322), wk =   0.0060000
        k(  399) = (   0.2000000   0.4618802   0.0614643), wk =   0.0060000
        k(  400) = (   0.2000000   0.4618802   0.0921965), wk =   0.0060000
        k(  401) = (   0.2000000   0.4618802   0.1229287), wk =   0.0060000
        k(  402) = (   0.2000000   0.4618802   0.1536608), wk =   0.0060000
        k(  403) = (   0.2000000   0.4618802   0.1843930), wk =   0.0060000
        k(  404) = (   0.2000000   0.4618802   0.2151251), wk =   0.0060000
        k(  405) = (   0.2000000   0.4618802   0.2458573), wk =   0.0060000
        k(  406) = (   0.2000000   0.4618802   0.2765895), wk =   0.0060000
        k(  407) = (   0.2000000   0.4618802  -0.3073216), wk =   0.0030000
        k(  408) = (   0.2000000   0.5196152   0.0000000), wk =   0.0030000
        k(  409) = (   0.2000000   0.5196152   0.0307322), wk =   0.0060000
        k(  410) = (   0.2000000   0.5196152   0.0614643), wk =   0.0060000
        k(  411) = (   0.2000000   0.5196152   0.0921965), wk =   0.0060000
        k(  412) = (   0.2000000   0.5196152   0.1229287), wk =   0.0060000
        k(  413) = (   0.2000000   0.5196152   0.1536608), wk =   0.0060000
        k(  414) = (   0.2000000   0.5196152   0.1843930), wk =   0.0060000
        k(  415) = (   0.2000000   0.5196152   0.2151251), wk =   0.0060000
        k(  416) = (   0.2000000   0.5196152   0.2458573), wk =   0.0060000
        k(  417) = (   0.2000000   0.5196152   0.2765895), wk =   0.0060000
        k(  418) = (   0.2000000   0.5196152  -0.3073216), wk =   0.0030000
        k(  419) = (   0.2000000   0.5773503   0.0000000), wk =   0.0015000
        k(  420) = (   0.2000000   0.5773503   0.0307322), wk =   0.0030000
        k(  421) = (   0.2000000   0.5773503   0.0614643), wk =   0.0030000
        k(  422) = (   0.2000000   0.5773503   0.0921965), wk =   0.0030000
        k(  423) = (   0.2000000   0.5773503   0.1229287), wk =   0.0030000
        k(  424) = (   0.2000000   0.5773503   0.1536608), wk =   0.0030000
        k(  425) = (   0.2000000   0.5773503   0.1843930), wk =   0.0030000
        k(  426) = (   0.2000000   0.5773503   0.2151251), wk =   0.0030000
        k(  427) = (   0.2000000   0.5773503   0.2458573), wk =   0.0030000
        k(  428) = (   0.2000000   0.5773503   0.2765895), wk =   0.0030000
        k(  429) = (   0.2000000   0.5773503  -0.3073216), wk =   0.0015000
        k(  430) = (   0.2500000   0.4330127   0.0000000), wk =   0.0015000
        k(  431) = (   0.2500000   0.4330127   0.0307322), wk =   0.0030000
        k(  432) = (   0.2500000   0.4330127   0.0614643), wk =   0.0030000
        k(  433) = (   0.2500000   0.4330127   0.0921965), wk =   0.0030000
        k(  434) = (   0.2500000   0.4330127   0.1229287), wk =   0.0030000
        k(  435) = (   0.2500000   0.4330127   0.1536608), wk =   0.0030000
        k(  436) = (   0.2500000   0.4330127   0.1843930), wk =   0.0030000
        k(  437) = (   0.2500000   0.4330127   0.2151251), wk =   0.0030000
        k(  438) = (   0.2500000   0.4330127   0.2458573), wk =   0.0030000
        k(  439) = (   0.2500000   0.4330127   0.2765895), wk =   0.0030000
        k(  440) = (   0.2500000   0.4330127  -0.3073216), wk =   0.0015000
        k(  441) = (   0.2500000   0.4907477   0.0000000), wk =   0.0030000
        k(  442) = (   0.2500000   0.4907477   0.0307322), wk =   0.0060000
        k(  443) = (   0.2500000   0.4907477   0.0614643), wk =   0.0060000
        k(  444) = (   0.2500000   0.4907477   0.0921965), wk =   0.0060000
        k(  445) = (   0.2500000   0.4907477   0.1229287), wk =   0.0060000
        k(  446) = (   0.2500000   0.4907477   0.1536608), wk =   0.0060000
        k(  447) = (   0.2500000   0.4907477   0.1843930), wk =   0.0060000
        k(  448) = (   0.2500000   0.4907477   0.2151251), wk =   0.0060000
        k(  449) = (   0.2500000   0.4907477   0.2458573), wk =   0.0060000
        k(  450) = (   0.2500000   0.4907477   0.2765895), wk =   0.0060000
        k(  451) = (   0.2500000   0.4907477  -0.3073216), wk =   0.0030000
        k(  452) = (   0.2500000   0.5484828   0.0000000), wk =   0.0030000
        k(  453) = (   0.2500000   0.5484828   0.0307322), wk =   0.0060000
        k(  454) = (   0.2500000   0.5484828   0.0614643), wk =   0.0060000
        k(  455) = (   0.2500000   0.5484828   0.0921965), wk =   0.0060000
        k(  456) = (   0.2500000   0.5484828   0.1229287), wk =   0.0060000
        k(  457) = (   0.2500000   0.5484828   0.1536608), wk =   0.0060000
        k(  458) = (   0.2500000   0.5484828   0.1843930), wk =   0.0060000
        k(  459) = (   0.2500000   0.5484828   0.2151251), wk =   0.0060000
        k(  460) = (   0.2500000   0.5484828   0.2458573), wk =   0.0060000
        k(  461) = (   0.2500000   0.5484828   0.2765895), wk =   0.0060000
        k(  462) = (   0.2500000   0.5484828  -0.3073216), wk =   0.0030000
        k(  463) = (   0.3000000   0.5196152   0.0000000), wk =   0.0015000
        k(  464) = (   0.3000000   0.5196152   0.0307322), wk =   0.0030000
        k(  465) = (   0.3000000   0.5196152   0.0614643), wk =   0.0030000
        k(  466) = (   0.3000000   0.5196152   0.0921965), wk =   0.0030000
        k(  467) = (   0.3000000   0.5196152   0.1229287), wk =   0.0030000
        k(  468) = (   0.3000000   0.5196152   0.1536608), wk =   0.0030000
        k(  469) = (   0.3000000   0.5196152   0.1843930), wk =   0.0030000
        k(  470) = (   0.3000000   0.5196152   0.2151251), wk =   0.0030000
        k(  471) = (   0.3000000   0.5196152   0.2458573), wk =   0.0030000
        k(  472) = (   0.3000000   0.5196152   0.2765895), wk =   0.0030000
        k(  473) = (   0.3000000   0.5196152  -0.3073216), wk =   0.0015000
        k(  474) = (   0.3000000   0.5773503   0.0000000), wk =   0.0015000
        k(  475) = (   0.3000000   0.5773503   0.0307322), wk =   0.0030000
        k(  476) = (   0.3000000   0.5773503   0.0614643), wk =   0.0030000
        k(  477) = (   0.3000000   0.5773503   0.0921965), wk =   0.0030000
        k(  478) = (   0.3000000   0.5773503   0.1229287), wk =   0.0030000
        k(  479) = (   0.3000000   0.5773503   0.1536608), wk =   0.0030000
        k(  480) = (   0.3000000   0.5773503   0.1843930), wk =   0.0030000
        k(  481) = (   0.3000000   0.5773503   0.2151251), wk =   0.0030000
        k(  482) = (   0.3000000   0.5773503   0.2458573), wk =   0.0030000
        k(  483) = (   0.3000000   0.5773503   0.2765895), wk =   0.0030000
        k(  484) = (   0.3000000   0.5773503  -0.3073216), wk =   0.0015000

                       cryst. coord.
        k(    1) = (   0.0000000   0.0000000   0.0000000), wk =   0.0002500
        k(    2) = (   0.0000000   0.0000000   0.0500000), wk =   0.0005000
        k(    3) = (   0.0000000   0.0000000   0.1000000), wk =   0.0005000
        k(    4) = (   0.0000000   0.0000000   0.1500000), wk =   0.0005000
        k(    5) = (   0.0000000   0.0000000   0.2000000), wk =   0.0005000
        k(    6) = (   0.0000000   0.0000000   0.2500000), wk =   0.0005000
        k(    7) = (   0.0000000   0.0000000   0.3000000), wk =   0.0005000
        k(    8) = (   0.0000000   0.0000000   0.3500000), wk =   0.0005000
        k(    9) = (   0.0000000   0.0000000   0.4000000), wk =   0.0005000
        k(   10) = (   0.0000000   0.0000000   0.4500000), wk =   0.0005000
        k(   11) = (   0.0000000   0.0000000  -0.5000000), wk =   0.0002500
        k(   12) = (   0.0000000   0.0500000   0.0000000), wk =   0.0015000
        k(   13) = (   0.0000000   0.0500000   0.0500000), wk =   0.0030000
        k(   14) = (   0.0000000   0.0500000   0.1000000), wk =   0.0030000
        k(   15) = (   0.0000000   0.0500000   0.1500000), wk =   0.0030000
        k(   16) = (   0.0000000   0.0500000   0.2000000), wk =   0.0030000
        k(   17) = (   0.0000000   0.0500000   0.2500000), wk =   0.0030000
        k(   18) = (   0.0000000   0.0500000   0.3000000), wk =   0.0030000
        k(   19) = (   0.0000000   0.0500000   0.3500000), wk =   0.0030000
        k(   20) = (   0.0000000   0.0500000   0.4000000), wk =   0.0030000
        k(   21) = (   0.0000000   0.0500000   0.4500000), wk =   0.0030000
        k(   22) = (   0.0000000   0.0500000  -0.5000000), wk =   0.0015000
        k(   23) = (   0.0000000   0.1000000   0.0000000), wk =   0.0015000
        k(   24) = (   0.0000000   0.1000000   0.0500000), wk =   0.0030000
        k(   25) = (   0.0000000   0.1000000   0.1000000), wk =   0.0030000
        k(   26) = (   0.0000000   0.1000000   0.1500000), wk =   0.0030000
        k(   27) = (   0.0000000   0.1000000   0.2000000), wk =   0.0030000
        k(   28) = (   0.0000000   0.1000000   0.2500000), wk =   0.0030000
        k(   29) = (   0.0000000   0.1000000   0.3000000), wk =   0.0030000
        k(   30) = (   0.0000000   0.1000000   0.3500000), wk =   0.0030000
        k(   31) = (   0.0000000   0.1000000   0.4000000), wk =   0.0030000
        k(   32) = (   0.0000000   0.1000000   0.4500000), wk =   0.0030000
        k(   33) = (   0.0000000   0.1000000  -0.5000000), wk =   0.0015000
        k(   34) = (   0.0000000   0.1500000   0.0000000), wk =   0.0015000
        k(   35) = (   0.0000000   0.1500000   0.0500000), wk =   0.0030000
        k(   36) = (   0.0000000   0.1500000   0.1000000), wk =   0.0030000
        k(   37) = (   0.0000000   0.1500000   0.1500000), wk =   0.0030000
        k(   38) = (   0.0000000   0.1500000   0.2000000), wk =   0.0030000
        k(   39) = (   0.0000000   0.1500000   0.2500000), wk =   0.0030000
        k(   40) = (   0.0000000   0.1500000   0.3000000), wk =   0.0030000
        k(   41) = (   0.0000000   0.1500000   0.3500000), wk =   0.0030000
        k(   42) = (   0.0000000   0.1500000   0.4000000), wk =   0.0030000
        k(   43) = (   0.0000000   0.1500000   0.4500000), wk =   0.0030000
        k(   44) = (   0.0000000   0.1500000  -0.5000000), wk =   0.0015000
        k(   45) = (   0.0000000   0.2000000   0.0000000), wk =   0.0015000
        k(   46) = (   0.0000000   0.2000000   0.0500000), wk =   0.0030000
        k(   47) = (   0.0000000   0.2000000   0.1000000), wk =   0.0030000
        k(   48) = (   0.0000000   0.2000000   0.1500000), wk =   0.0030000
        k(   49) = (   0.0000000   0.2000000   0.2000000), wk =   0.0030000
        k(   50) = (   0.0000000   0.2000000   0.2500000), wk =   0.0030000
        k(   51) = (   0.0000000   0.2000000   0.3000000), wk =   0.0030000
        k(   52) = (   0.0000000   0.2000000   0.3500000), wk =   0.0030000
        k(   53) = (   0.0000000   0.2000000   0.4000000), wk =   0.0030000
        k(   54) = (   0.0000000   0.2000000   0.4500000), wk =   0.0030000
        k(   55) = (   0.0000000   0.2000000  -0.5000000), wk =   0.0015000
        k(   56) = (   0.0000000   0.2500000   0.0000000), wk =   0.0015000
        k(   57) = (   0.0000000   0.2500000   0.0500000), wk =   0.0030000
        k(   58) = (   0.0000000   0.2500000   0.1000000), wk =   0.0030000
        k(   59) = (   0.0000000   0.2500000   0.1500000), wk =   0.0030000
        k(   60) = (   0.0000000   0.2500000   0.2000000), wk =   0.0030000
        k(   61) = (   0.0000000   0.2500000   0.2500000), wk =   0.0030000
        k(   62) = (   0.0000000   0.2500000   0.3000000), wk =   0.0030000
        k(   63) = (   0.0000000   0.2500000   0.3500000), wk =   0.0030000
        k(   64) = (   0.0000000   0.2500000   0.4000000), wk =   0.0030000
        k(   65) = (   0.0000000   0.2500000   0.4500000), wk =   0.0030000
        k(   66) = (   0.0000000   0.2500000  -0.5000000), wk =   0.0015000
        k(   67) = (   0.0000000   0.3000000   0.0000000), wk =   0.0015000
        k(   68) = (   0.0000000   0.3000000   0.0500000), wk =   0.0030000
        k(   69) = (   0.0000000   0.3000000   0.1000000), wk =   0.0030000
        k(   70) = (   0.0000000   0.3000000   0.1500000), wk =   0.0030000
        k(   71) = (   0.0000000   0.3000000   0.2000000), wk =   0.0030000
        k(   72) = (   0.0000000   0.3000000   0.2500000), wk =   0.0030000
        k(   73) = (   0.0000000   0.3000000   0.3000000), wk =   0.0030000
        k(   74) = (   0.0000000   0.3000000   0.3500000), wk =   0.0030000
        k(   75) = (   0.0000000   0.3000000   0.4000000), wk =   0.0030000
        k(   76) = (   0.0000000   0.3000000   0.4500000), wk =   0.0030000
        k(   77) = (   0.0000000   0.3000000  -0.5000000), wk =   0.0015000
        k(   78) = (   0.0000000   0.3500000   0.0000000), wk =   0.0015000
        k(   79) = (   0.0000000   0.3500000   0.0500000), wk =   0.0030000
        k(   80) = (   0.0000000   0.3500000   0.1000000), wk =   0.0030000
        k(   81) = (   0.0000000   0.3500000   0.1500000), wk =   0.0030000
        k(   82) = (   0.0000000   0.3500000   0.2000000), wk =   0.0030000
        k(   83) = (   0.0000000   0.3500000   0.2500000), wk =   0.0030000
        k(   84) = (   0.0000000   0.3500000   0.3000000), wk =   0.0030000
        k(   85) = (   0.0000000   0.3500000   0.3500000), wk =   0.0030000
        k(   86) = (   0.0000000   0.3500000   0.4000000), wk =   0.0030000
        k(   87) = (   0.0000000   0.3500000   0.4500000), wk =   0.0030000
        k(   88) = (   0.0000000   0.3500000  -0.5000000), wk =   0.0015000
        k(   89) = (   0.0000000   0.4000000   0.0000000), wk =   0.0015000
        k(   90) = (   0.0000000   0.4000000   0.0500000), wk =   0.0030000
        k(   91) = (   0.0000000   0.4000000   0.1000000), wk =   0.0030000
        k(   92) = (   0.0000000   0.4000000   0.1500000), wk =   0.0030000
        k(   93) = (   0.0000000   0.4000000   0.2000000), wk =   0.0030000
        k(   94) = (   0.0000000   0.4000000   0.2500000), wk =   0.0030000
        k(   95) = (   0.0000000   0.4000000   0.3000000), wk =   0.0030000
        k(   96) = (   0.0000000   0.4000000   0.3500000), wk =   0.0030000
        k(   97) = (   0.0000000   0.4000000   0.4000000), wk =   0.0030000
        k(   98) = (   0.0000000   0.4000000   0.4500000), wk =   0.0030000
        k(   99) = (   0.0000000   0.4000000  -0.5000000), wk =   0.0015000
        k(  100) = (   0.0000000   0.4500000   0.0000000), wk =   0.0015000
        k(  101) = (   0.0000000   0.4500000   0.0500000), wk =   0.0030000
        k(  102) = (   0.0000000   0.4500000   0.1000000), wk =   0.0030000
        k(  103) = (   0.0000000   0.4500000   0.1500000), wk =   0.0030000
        k(  104) = (   0.0000000   0.4500000   0.2000000), wk =   0.0030000
        k(  105) = (   0.0000000   0.4500000   0.2500000), wk =   0.0030000
        k(  106) = (   0.0000000   0.4500000   0.3000000), wk =   0.0030000
        k(  107) = (   0.0000000   0.4500000   0.3500000), wk =   0.0030000
        k(  108) = (   0.0000000   0.4500000   0.4000000), wk =   0.0030000
        k(  109) = (   0.0000000   0.4500000   0.4500000), wk =   0.0030000
        k(  110) = (   0.0000000   0.4500000  -0.5000000), wk =   0.0015000
        k(  111) = (   0.0000000  -0.5000000   0.0000000), wk =   0.0007500
        k(  112) = (   0.0000000  -0.5000000   0.0500000), wk =   0.0015000
        k(  113) = (   0.0000000  -0.5000000   0.1000000), wk =   0.0015000
        k(  114) = (   0.0000000  -0.5000000   0.1500000), wk =   0.0015000
        k(  115) = (   0.0000000  -0.5000000   0.2000000), wk =   0.0015000
        k(  116) = (   0.0000000  -0.5000000   0.2500000), wk =   0.0015000
        k(  117) = (   0.0000000  -0.5000000   0.3000000), wk =   0.0015000
        k(  118) = (   0.0000000  -0.5000000   0.3500000), wk =   0.0015000
        k(  119) = (   0.0000000  -0.5000000   0.4000000), wk =   0.0015000
        k(  120) = (   0.0000000  -0.5000000   0.4500000), wk =   0.0015000
        k(  121) = (   0.0000000  -0.5000000  -0.5000000), wk =   0.0007500
        k(  122) = (   0.0500000   0.0500000   0.0000000), wk =   0.0015000
        k(  123) = (   0.0500000   0.0500000   0.0500000), wk =   0.0030000
        k(  124) = (   0.0500000   0.0500000   0.1000000), wk =   0.0030000
        k(  125) = (   0.0500000   0.0500000   0.1500000), wk =   0.0030000
        k(  126) = (   0.0500000   0.0500000   0.2000000), wk =   0.0030000
        k(  127) = (   0.0500000   0.0500000   0.2500000), wk =   0.0030000
        k(  128) = (   0.0500000   0.0500000   0.3000000), wk =   0.0030000
        k(  129) = (   0.0500000   0.0500000   0.3500000), wk =   0.0030000
        k(  130) = (   0.0500000   0.0500000   0.4000000), wk =   0.0030000
        k(  131) = (   0.0500000   0.0500000   0.4500000), wk =   0.0030000
        k(  132) = (   0.0500000   0.0500000  -0.5000000), wk =   0.0015000
        k(  133) = (   0.0500000   0.1000000   0.0000000), wk =   0.0030000
        k(  134) = (   0.0500000   0.1000000   0.0500000), wk =   0.0060000
        k(  135) = (   0.0500000   0.1000000   0.1000000), wk =   0.0060000
        k(  136) = (   0.0500000   0.1000000   0.1500000), wk =   0.0060000
        k(  137) = (   0.0500000   0.1000000   0.2000000), wk =   0.0060000
        k(  138) = (   0.0500000   0.1000000   0.2500000), wk =   0.0060000
        k(  139) = (   0.0500000   0.1000000   0.3000000), wk =   0.0060000
        k(  140) = (   0.0500000   0.1000000   0.3500000), wk =   0.0060000
        k(  141) = (   0.0500000   0.1000000   0.4000000), wk =   0.0060000
        k(  142) = (   0.0500000   0.1000000   0.4500000), wk =   0.0060000
        k(  143) = (   0.0500000   0.1000000  -0.5000000), wk =   0.0030000
        k(  144) = (   0.0500000   0.1500000   0.0000000), wk =   0.0030000
        k(  145) = (   0.0500000   0.1500000   0.0500000), wk =   0.0060000
        k(  146) = (   0.0500000   0.1500000   0.1000000), wk =   0.0060000
        k(  147) = (   0.0500000   0.1500000   0.1500000), wk =   0.0060000
        k(  148) = (   0.0500000   0.1500000   0.2000000), wk =   0.0060000
        k(  149) = (   0.0500000   0.1500000   0.2500000), wk =   0.0060000
        k(  150) = (   0.0500000   0.1500000   0.3000000), wk =   0.0060000
        k(  151) = (   0.0500000   0.1500000   0.3500000), wk =   0.0060000
        k(  152) = (   0.0500000   0.1500000   0.4000000), wk =   0.0060000
        k(  153) = (   0.0500000   0.1500000   0.4500000), wk =   0.0060000
        k(  154) = (   0.0500000   0.1500000  -0.5000000), wk =   0.0030000
        k(  155) = (   0.0500000   0.2000000   0.0000000), wk =   0.0030000
        k(  156) = (   0.0500000   0.2000000   0.0500000), wk =   0.0060000
        k(  157) = (   0.0500000   0.2000000   0.1000000), wk =   0.0060000
        k(  158) = (   0.0500000   0.2000000   0.1500000), wk =   0.0060000
        k(  159) = (   0.0500000   0.2000000   0.2000000), wk =   0.0060000
        k(  160) = (   0.0500000   0.2000000   0.2500000), wk =   0.0060000
        k(  161) = (   0.0500000   0.2000000   0.3000000), wk =   0.0060000
        k(  162) = (   0.0500000   0.2000000   0.3500000), wk =   0.0060000
        k(  163) = (   0.0500000   0.2000000   0.4000000), wk =   0.0060000
        k(  164) = (   0.0500000   0.2000000   0.4500000), wk =   0.0060000
        k(  165) = (   0.0500000   0.2000000  -0.5000000), wk =   0.0030000
        k(  166) = (   0.0500000   0.2500000   0.0000000), wk =   0.0030000
        k(  167) = (   0.0500000   0.2500000   0.0500000), wk =   0.0060000
        k(  168) = (   0.0500000   0.2500000   0.1000000), wk =   0.0060000
        k(  169) = (   0.0500000   0.2500000   0.1500000), wk =   0.0060000
        k(  170) = (   0.0500000   0.2500000   0.2000000), wk =   0.0060000
        k(  171) = (   0.0500000   0.2500000   0.2500000), wk =   0.0060000
        k(  172) = (   0.0500000   0.2500000   0.3000000), wk =   0.0060000
        k(  173) = (   0.0500000   0.2500000   0.3500000), wk =   0.0060000
        k(  174) = (   0.0500000   0.2500000   0.4000000), wk =   0.0060000
        k(  175) = (   0.0500000   0.2500000   0.4500000), wk =   0.0060000
        k(  176) = (   0.0500000   0.2500000  -0.5000000), wk =   0.0030000
        k(  177) = (   0.0500000   0.3000000   0.0000000), wk =   0.0030000
        k(  178) = (   0.0500000   0.3000000   0.0500000), wk =   0.0060000
        k(  179) = (   0.0500000   0.3000000   0.1000000), wk =   0.0060000
        k(  180) = (   0.0500000   0.3000000   0.1500000), wk =   0.0060000
        k(  181) = (   0.0500000   0.3000000   0.2000000), wk =   0.0060000
        k(  182) = (   0.0500000   0.3000000   0.2500000), wk =   0.0060000
        k(  183) = (   0.0500000   0.3000000   0.3000000), wk =   0.0060000
        k(  184) = (   0.0500000   0.3000000   0.3500000), wk =   0.0060000
        k(  185) = (   0.0500000   0.3000000   0.4000000), wk =   0.0060000
        k(  186) = (   0.0500000   0.3000000   0.4500000), wk =   0.0060000
        k(  187) = (   0.0500000   0.3000000  -0.5000000), wk =   0.0030000
        k(  188) = (   0.0500000   0.3500000   0.0000000), wk =   0.0030000
        k(  189) = (   0.0500000   0.3500000   0.0500000), wk =   0.0060000
        k(  190) = (   0.0500000   0.3500000   0.1000000), wk =   0.0060000
        k(  191) = (   0.0500000   0.3500000   0.1500000), wk =   0.0060000
        k(  192) = (   0.0500000   0.3500000   0.2000000), wk =   0.0060000
        k(  193) = (   0.0500000   0.3500000   0.2500000), wk =   0.0060000
        k(  194) = (   0.0500000   0.3500000   0.3000000), wk =   0.0060000
        k(  195) = (   0.0500000   0.3500000   0.3500000), wk =   0.0060000
        k(  196) = (   0.0500000   0.3500000   0.4000000), wk =   0.0060000
        k(  197) = (   0.0500000   0.3500000   0.4500000), wk =   0.0060000
        k(  198) = (   0.0500000   0.3500000  -0.5000000), wk =   0.0030000
        k(  199) = (   0.0500000   0.4000000   0.0000000), wk =   0.0030000
        k(  200) = (   0.0500000   0.4000000   0.0500000), wk =   0.0060000
        k(  201) = (   0.0500000   0.4000000   0.1000000), wk =   0.0060000
        k(  202) = (   0.0500000   0.4000000   0.1500000), wk =   0.0060000
        k(  203) = (   0.0500000   0.4000000   0.2000000), wk =   0.0060000
        k(  204) = (   0.0500000   0.4000000   0.2500000), wk =   0.0060000
        k(  205) = (   0.0500000   0.4000000   0.3000000), wk =   0.0060000
        k(  206) = (   0.0500000   0.4000000   0.3500000), wk =   0.0060000
        k(  207) = (   0.0500000   0.4000000   0.4000000), wk =   0.0060000
        k(  208) = (   0.0500000   0.4000000   0.4500000), wk =   0.0060000
        k(  209) = (   0.0500000   0.4000000  -0.5000000), wk =   0.0030000
        k(  210) = (   0.0500000   0.4500000   0.0000000), wk =   0.0030000
        k(  211) = (   0.0500000   0.4500000   0.0500000), wk =   0.0060000
        k(  212) = (   0.0500000   0.4500000   0.1000000), wk =   0.0060000
        k(  213) = (   0.0500000   0.4500000   0.1500000), wk =   0.0060000
        k(  214) = (   0.0500000   0.4500000   0.2000000), wk =   0.0060000
        k(  215) = (   0.0500000   0.4500000   0.2500000), wk =   0.0060000
        k(  216) = (   0.0500000   0.4500000   0.3000000), wk =   0.0060000
        k(  217) = (   0.0500000   0.4500000   0.3500000), wk =   0.0060000
        k(  218) = (   0.0500000   0.4500000   0.4000000), wk =   0.0060000
        k(  219) = (   0.0500000   0.4500000   0.4500000), wk =   0.0060000
        k(  220) = (   0.0500000   0.4500000  -0.5000000), wk =   0.0030000
        k(  221) = (   0.1000000   0.1000000   0.0000000), wk =   0.0015000
        k(  222) = (   0.1000000   0.1000000   0.0500000), wk =   0.0030000
        k(  223) = (   0.1000000   0.1000000   0.1000000), wk =   0.0030000
        k(  224) = (   0.1000000   0.1000000   0.1500000), wk =   0.0030000
        k(  225) = (   0.1000000   0.1000000   0.2000000), wk =   0.0030000
        k(  226) = (   0.1000000   0.1000000   0.2500000), wk =   0.0030000
        k(  227) = (   0.1000000   0.1000000   0.3000000), wk =   0.0030000
        k(  228) = (   0.1000000   0.1000000   0.3500000), wk =   0.0030000
        k(  229) = (   0.1000000   0.1000000   0.4000000), wk =   0.0030000
        k(  230) = (   0.1000000   0.1000000   0.4500000), wk =   0.0030000
        k(  231) = (   0.1000000   0.1000000  -0.5000000), wk =   0.0015000
        k(  232) = (   0.1000000   0.1500000   0.0000000), wk =   0.0030000
        k(  233) = (   0.1000000   0.1500000   0.0500000), wk =   0.0060000
        k(  234) = (   0.1000000   0.1500000   0.1000000), wk =   0.0060000
        k(  235) = (   0.1000000   0.1500000   0.1500000), wk =   0.0060000
        k(  236) = (   0.1000000   0.1500000   0.2000000), wk =   0.0060000
        k(  237) = (   0.1000000   0.1500000   0.2500000), wk =   0.0060000
        k(  238) = (   0.1000000   0.1500000   0.3000000), wk =   0.0060000
        k(  239) = (   0.1000000   0.1500000   0.3500000), wk =   0.0060000
        k(  240) = (   0.1000000   0.1500000   0.4000000), wk =   0.0060000
        k(  241) = (   0.1000000   0.1500000   0.4500000), wk =   0.0060000
        k(  242) = (   0.1000000   0.1500000  -0.5000000), wk =   0.0030000
        k(  243) = (   0.1000000   0.2000000   0.0000000), wk =   0.0030000
        k(  244) = (   0.1000000   0.2000000   0.0500000), wk =   0.0060000
        k(  245) = (   0.1000000   0.2000000   0.1000000), wk =   0.0060000
        k(  246) = (   0.1000000   0.2000000   0.1500000), wk =   0.0060000
        k(  247) = (   0.1000000   0.2000000   0.2000000), wk =   0.0060000
        k(  248) = (   0.1000000   0.2000000   0.2500000), wk =   0.0060000
        k(  249) = (   0.1000000   0.2000000   0.3000000), wk =   0.0060000
        k(  250) = (   0.1000000   0.2000000   0.3500000), wk =   0.0060000
        k(  251) = (   0.1000000   0.2000000   0.4000000), wk =   0.0060000
        k(  252) = (   0.1000000   0.2000000   0.4500000), wk =   0.0060000
        k(  253) = (   0.1000000   0.2000000  -0.5000000), wk =   0.0030000
        k(  254) = (   0.1000000   0.2500000   0.0000000), wk =   0.0030000
        k(  255) = (   0.1000000   0.2500000   0.0500000), wk =   0.0060000
        k(  256) = (   0.1000000   0.2500000   0.1000000), wk =   0.0060000
        k(  257) = (   0.1000000   0.2500000   0.1500000), wk =   0.0060000
        k(  258) = (   0.1000000   0.2500000   0.2000000), wk =   0.0060000
        k(  259) = (   0.1000000   0.2500000   0.2500000), wk =   0.0060000
        k(  260) = (   0.1000000   0.2500000   0.3000000), wk =   0.0060000
        k(  261) = (   0.1000000   0.2500000   0.3500000), wk =   0.0060000
        k(  262) = (   0.1000000   0.2500000   0.4000000), wk =   0.0060000
        k(  263) = (   0.1000000   0.2500000   0.4500000), wk =   0.0060000
        k(  264) = (   0.1000000   0.2500000  -0.5000000), wk =   0.0030000
        k(  265) = (   0.1000000   0.3000000   0.0000000), wk =   0.0030000
        k(  266) = (   0.1000000   0.3000000   0.0500000), wk =   0.0060000
        k(  267) = (   0.1000000   0.3000000   0.1000000), wk =   0.0060000
        k(  268) = (   0.1000000   0.3000000   0.1500000), wk =   0.0060000
        k(  269) = (   0.1000000   0.3000000   0.2000000), wk =   0.0060000
        k(  270) = (   0.1000000   0.3000000   0.2500000), wk =   0.0060000
        k(  271) = (   0.1000000   0.3000000   0.3000000), wk =   0.0060000
        k(  272) = (   0.1000000   0.3000000   0.3500000), wk =   0.0060000
        k(  273) = (   0.1000000   0.3000000   0.4000000), wk =   0.0060000
        k(  274) = (   0.1000000   0.3000000   0.4500000), wk =   0.0060000
        k(  275) = (   0.1000000   0.3000000  -0.5000000), wk =   0.0030000
        k(  276) = (   0.1000000   0.3500000   0.0000000), wk =   0.0030000
        k(  277) = (   0.1000000   0.3500000   0.0500000), wk =   0.0060000
        k(  278) = (   0.1000000   0.3500000   0.1000000), wk =   0.0060000
        k(  279) = (   0.1000000   0.3500000   0.1500000), wk =   0.0060000
        k(  280) = (   0.1000000   0.3500000   0.2000000), wk =   0.0060000
        k(  281) = (   0.1000000   0.3500000   0.2500000), wk =   0.0060000
        k(  282) = (   0.1000000   0.3500000   0.3000000), wk =   0.0060000
        k(  283) = (   0.1000000   0.3500000   0.3500000), wk =   0.0060000
        k(  284) = (   0.1000000   0.3500000   0.4000000), wk =   0.0060000
        k(  285) = (   0.1000000   0.3500000   0.4500000), wk =   0.0060000
        k(  286) = (   0.1000000   0.3500000  -0.5000000), wk =   0.0030000
        k(  287) = (   0.1000000   0.4000000   0.0000000), wk =   0.0030000
        k(  288) = (   0.1000000   0.4000000   0.0500000), wk =   0.0060000
        k(  289) = (   0.1000000   0.4000000   0.1000000), wk =   0.0060000
        k(  290) = (   0.1000000   0.4000000   0.1500000), wk =   0.0060000
        k(  291) = (   0.1000000   0.4000000   0.2000000), wk =   0.0060000
        k(  292) = (   0.1000000   0.4000000   0.2500000), wk =   0.0060000
        k(  293) = (   0.1000000   0.4000000   0.3000000), wk =   0.0060000
        k(  294) = (   0.1000000   0.4000000   0.3500000), wk =   0.0060000
        k(  295) = (   0.1000000   0.4000000   0.4000000), wk =   0.0060000
        k(  296) = (   0.1000000   0.4000000   0.4500000), wk =   0.0060000
        k(  297) = (   0.1000000   0.4000000  -0.5000000), wk =   0.0030000
        k(  298) = (   0.1000000   0.4500000   0.0000000), wk =   0.0015000
        k(  299) = (   0.1000000   0.4500000   0.0500000), wk =   0.0030000
        k(  300) = (   0.1000000   0.4500000   0.1000000), wk =   0.0030000
        k(  301) = (   0.1000000   0.4500000   0.1500000), wk =   0.0030000
        k(  302) = (   0.1000000   0.4500000   0.2000000), wk =   0.0030000
        k(  303) = (   0.1000000   0.4500000   0.2500000), wk =   0.0030000
        k(  304) = (   0.1000000   0.4500000   0.3000000), wk =   0.0030000
        k(  305) = (   0.1000000   0.4500000   0.3500000), wk =   0.0030000
        k(  306) = (   0.1000000   0.4500000   0.4000000), wk =   0.0030000
        k(  307) = (   0.1000000   0.4500000   0.4500000), wk =   0.0030000
        k(  308) = (   0.1000000   0.4500000  -0.5000000), wk =   0.0015000
        k(  309) = (   0.1500000   0.1500000   0.0000000), wk =   0.0015000
        k(  310) = (   0.1500000   0.1500000   0.0500000), wk =   0.0030000
        k(  311) = (   0.1500000   0.1500000   0.1000000), wk =   0.0030000
        k(  312) = (   0.1500000   0.1500000   0.1500000), wk =   0.0030000
        k(  313) = (   0.1500000   0.1500000   0.2000000), wk =   0.0030000
        k(  314) = (   0.1500000   0.1500000   0.2500000), wk =   0.0030000
        k(  315) = (   0.1500000   0.1500000   0.3000000), wk =   0.0030000
        k(  316) = (   0.1500000   0.1500000   0.3500000), wk =   0.0030000
        k(  317) = (   0.1500000   0.1500000   0.4000000), wk =   0.0030000
        k(  318) = (   0.1500000   0.1500000   0.4500000), wk =   0.0030000
        k(  319) = (   0.1500000   0.1500000  -0.5000000), wk =   0.0015000
        k(  320) = (   0.1500000   0.2000000   0.0000000), wk =   0.0030000
        k(  321) = (   0.1500000   0.2000000   0.0500000), wk =   0.0060000
        k(  322) = (   0.1500000   0.2000000   0.1000000), wk =   0.0060000
        k(  323) = (   0.1500000   0.2000000   0.1500000), wk =   0.0060000
        k(  324) = (   0.1500000   0.2000000   0.2000000), wk =   0.0060000
        k(  325) = (   0.1500000   0.2000000   0.2500000), wk =   0.0060000
        k(  326) = (   0.1500000   0.2000000   0.3000000), wk =   0.0060000
        k(  327) = (   0.1500000   0.2000000   0.3500000), wk =   0.0060000
        k(  328) = (   0.1500000   0.2000000   0.4000000), wk =   0.0060000
        k(  329) = (   0.1500000   0.2000000   0.4500000), wk =   0.0060000
        k(  330) = (   0.1500000   0.2000000  -0.5000000), wk =   0.0030000
        k(  331) = (   0.1500000   0.2500000   0.0000000), wk =   0.0030000
        k(  332) = (   0.1500000   0.2500000   0.0500000), wk =   0.0060000
        k(  333) = (   0.1500000   0.2500000   0.1000000), wk =   0.0060000
        k(  334) = (   0.1500000   0.2500000   0.1500000), wk =   0.0060000
        k(  335) = (   0.1500000   0.2500000   0.2000000), wk =   0.0060000
        k(  336) = (   0.1500000   0.2500000   0.2500000), wk =   0.0060000
        k(  337) = (   0.1500000   0.2500000   0.3000000), wk =   0.0060000
        k(  338) = (   0.1500000   0.2500000   0.3500000), wk =   0.0060000
        k(  339) = (   0.1500000   0.2500000   0.4000000), wk =   0.0060000
        k(  340) = (   0.1500000   0.2500000   0.4500000), wk =   0.0060000
        k(  341) = (   0.1500000   0.2500000  -0.5000000), wk =   0.0030000
        k(  342) = (   0.1500000   0.3000000   0.0000000), wk =   0.0030000
        k(  343) = (   0.1500000   0.3000000   0.0500000), wk =   0.0060000
        k(  344) = (   0.1500000   0.3000000   0.1000000), wk =   0.0060000
        k(  345) = (   0.1500000   0.3000000   0.1500000), wk =   0.0060000
        k(  346) = (   0.1500000   0.3000000   0.2000000), wk =   0.0060000
        k(  347) = (   0.1500000   0.3000000   0.2500000), wk =   0.0060000
        k(  348) = (   0.1500000   0.3000000   0.3000000), wk =   0.0060000
        k(  349) = (   0.1500000   0.3000000   0.3500000), wk =   0.0060000
        k(  350) = (   0.1500000   0.3000000   0.4000000), wk =   0.0060000
        k(  351) = (   0.1500000   0.3000000   0.4500000), wk =   0.0060000
        k(  352) = (   0.1500000   0.3000000  -0.5000000), wk =   0.0030000
        k(  353) = (   0.1500000   0.3500000   0.0000000), wk =   0.0030000
        k(  354) = (   0.1500000   0.3500000   0.0500000), wk =   0.0060000
        k(  355) = (   0.1500000   0.3500000   0.1000000), wk =   0.0060000
        k(  356) = (   0.1500000   0.3500000   0.1500000), wk =   0.0060000
        k(  357) = (   0.1500000   0.3500000   0.2000000), wk =   0.0060000
        k(  358) = (   0.1500000   0.3500000   0.2500000), wk =   0.0060000
        k(  359) = (   0.1500000   0.3500000   0.3000000), wk =   0.0060000
        k(  360) = (   0.1500000   0.3500000   0.3500000), wk =   0.0060000
        k(  361) = (   0.1500000   0.3500000   0.4000000), wk =   0.0060000
        k(  362) = (   0.1500000   0.3500000   0.4500000), wk =   0.0060000
        k(  363) = (   0.1500000   0.3500000  -0.5000000), wk =   0.0030000
        k(  364) = (   0.1500000   0.4000000   0.0000000), wk =   0.0030000
        k(  365) = (   0.1500000   0.4000000   0.0500000), wk =   0.0060000
        k(  366) = (   0.1500000   0.4000000   0.1000000), wk =   0.0060000
        k(  367) = (   0.1500000   0.4000000   0.1500000), wk =   0.0060000
        k(  368) = (   0.1500000   0.4000000   0.2000000), wk =   0.0060000
        k(  369) = (   0.1500000   0.4000000   0.2500000), wk =   0.0060000
        k(  370) = (   0.1500000   0.4000000   0.3000000), wk =   0.0060000
        k(  371) = (   0.1500000   0.4000000   0.3500000), wk =   0.0060000
        k(  372) = (   0.1500000   0.4000000   0.4000000), wk =   0.0060000
        k(  373) = (   0.1500000   0.4000000   0.4500000), wk =   0.0060000
        k(  374) = (   0.1500000   0.4000000  -0.5000000), wk =   0.0030000
        k(  375) = (   0.2000000   0.2000000   0.0000000), wk =   0.0015000
        k(  376) = (   0.2000000   0.2000000   0.0500000), wk =   0.0030000
        k(  377) = (   0.2000000   0.2000000   0.1000000), wk =   0.0030000
        k(  378) = (   0.2000000   0.2000000   0.1500000), wk =   0.0030000
        k(  379) = (   0.2000000   0.2000000   0.2000000), wk =   0.0030000
        k(  380) = (   0.2000000   0.2000000   0.2500000), wk =   0.0030000
        k(  381) = (   0.2000000   0.2000000   0.3000000), wk =   0.0030000
        k(  382) = (   0.2000000   0.2000000   0.3500000), wk =   0.0030000
        k(  383) = (   0.2000000   0.2000000   0.4000000), wk =   0.0030000
        k(  384) = (   0.2000000   0.2000000   0.4500000), wk =   0.0030000
        k(  385) = (   0.2000000   0.2000000  -0.5000000), wk =   0.0015000
        k(  386) = (   0.2000000   0.2500000   0.0000000), wk =   0.0030000
        k(  387) = (   0.2000000   0.2500000   0.0500000), wk =   0.0060000
        k(  388) = (   0.2000000   0.2500000   0.1000000), wk =   0.0060000
        k(  389) = (   0.2000000   0.2500000   0.1500000), wk =   0.0060000
        k(  390) = (   0.2000000   0.2500000   0.2000000), wk =   0.0060000
        k(  391) = (   0.2000000   0.2500000   0.2500000), wk =   0.0060000
        k(  392) = (   0.2000000   0.2500000   0.3000000), wk =   0.0060000
        k(  393) = (   0.2000000   0.2500000   0.3500000), wk =   0.0060000
        k(  394) = (   0.2000000   0.2500000   0.4000000), wk =   0.0060000
        k(  395) = (   0.2000000   0.2500000   0.4500000), wk =   0.0060000
        k(  396) = (   0.2000000   0.2500000  -0.5000000), wk =   0.0030000
        k(  397) = (   0.2000000   0.3000000   0.0000000), wk =   0.0030000
        k(  398) = (   0.2000000   0.3000000   0.0500000), wk =   0.0060000
        k(  399) = (   0.2000000   0.3000000   0.1000000), wk =   0.0060000
        k(  400) = (   0.2000000   0.3000000   0.1500000), wk =   0.0060000
        k(  401) = (   0.2000000   0.3000000   0.2000000), wk =   0.0060000
        k(  402) = (   0.2000000   0.3000000   0.2500000), wk =   0.0060000
        k(  403) = (   0.2000000   0.3000000   0.3000000), wk =   0.0060000
        k(  404) = (   0.2000000   0.3000000   0.3500000), wk =   0.0060000
        k(  405) = (   0.2000000   0.3000000   0.4000000), wk =   0.0060000
        k(  406) = (   0.2000000   0.3000000   0.4500000), wk =   0.0060000
        k(  407) = (   0.2000000   0.3000000  -0.5000000), wk =   0.0030000
        k(  408) = (   0.2000000   0.3500000   0.0000000), wk =   0.0030000
        k(  409) = (   0.2000000   0.3500000   0.0500000), wk =   0.0060000
        k(  410) = (   0.2000000   0.3500000   0.1000000), wk =   0.0060000
        k(  411) = (   0.2000000   0.3500000   0.1500000), wk =   0.0060000
        k(  412) = (   0.2000000   0.3500000   0.2000000), wk =   0.0060000
        k(  413) = (   0.2000000   0.3500000   0.2500000), wk =   0.0060000
[...]
     1.0000   1.0000   1.0000   1.0000   1.0000   1.0000   1.0000   1.0000
     1.0000   1.0000   1.0000   1.0000   1.0000   1.0000   1.0000   1.0000
     1.0000   1.0000

          k = 0.2500 0.4907 0.1844 ( 49758 PWs)   bands (ev):

    -4.3643  -4.3122  -2.8734  -2.8224  -2.7895  -2.7399  -2.6923  -2.6764
    -2.6369  -2.6206  -1.2141  -0.8011   4.5008   4.9090   6.3618   7.6396
     8.1648   9.1003

     occupation numbers 
     1.0000   1.0000   1.0000   1.0000   1.0000   1.0000   1.0000   1.0000
     1.0000   1.0000   1.0000   1.0000   1.0000   1.0000   1.0000   1.0000
     1.0000   1.0000

          k = 0.2500 0.4907 0.2151 ( 49739 PWs)   bands (ev):

    -4.3515  -4.3114  -2.8578  -2.8274  -2.7998  -2.7485  -2.6924  -2.6805
    -2.6346  -2.6190  -1.1728  -0.8530   4.4652   4.7909   6.4739   7.4685
     8.4369   9.1872

     occupation numbers 
     1.0000   1.0000   1.0000   1.0000   1.0000   1.0000   1.0000   1.0000
     1.0000   1.0000   1.0000   1.0000   1.0000   1.0000   1.0000   1.0000
     1.0000   1.0000

          k = 0.2500 0.4907 0.2459 ( 49725 PWs)   bands (ev):

    -4.3396  -4.3124  -2.8433  -2.8299  -2.8067  -2.7606  -2.6924  -2.6852
    -2.6303  -2.6187  -1.1262  -0.9081   4.4567   4.6831   6.6087   7.2874
     8.6912   9.2167

     occupation numbers 
     1.0000   1.0000   1.0000   1.0000   1.0000   1.0000   1.0000   1.0000
     1.0000   1.0000   1.0000   1.0000   1.0000   1.0000   1.0000   1.0000
     1.0000   1.0000

          k = 0.2500 0.4907 0.2766 ( 49737 PWs)   bands (ev):

    -4.3293  -4.3156  -2.8350  -2.8301  -2.8045  -2.7756  -2.6921  -2.6888
    -2.6259  -2.6198  -1.0752  -0.9647   4.4758   4.5917   6.7617   7.1056
     8.9090   9.1801

     occupation numbers 
     1.0000   1.0000   1.0000   1.0000   1.0000   1.0000   1.0000   1.0000
     1.0000   1.0000   1.0000   1.0000   1.0000   1.0000   1.0000   1.0000
     1.0000   1.0000

          k = 0.2500 0.4907-0.3073 ( 49728 PWs)   bands (ev):

    -4.3213  -4.3213  -2.8319  -2.8319  -2.7915  -2.7915  -2.6910  -2.6910
    -2.6223  -2.6223  -1.0209  -1.0209   4.5215   4.5215   6.9288   6.9288
     9.0757   9.0757

     occupation numbers 
     1.0000   1.0000   1.0000   1.0000   1.0000   1.0000   1.0000   1.0000
     1.0000   1.0000   1.0000   1.0000   1.0000   1.0000   1.0000   1.0000
     1.0000   1.0000

          k = 0.2500 0.5485 0.0000 ( 49762 PWs)   bands (ev):

    -4.3899  -4.3289  -2.9279  -2.7758  -2.7232  -2.7156  -2.7083  -2.6922
    -2.6471  -2.6087  -1.1125  -0.7246   4.8396   5.4230   5.8999   7.1952
     8.0718   8.1944

     occupation numbers 
     1.0000   1.0000   1.0000   1.0000   1.0000   1.0000   1.0000   1.0000
     1.0000   1.0000   1.0000   1.0000   1.0000   1.0000   1.0000   1.0000
     1.0000   1.0000

          k = 0.2500 0.5485 0.0307 ( 49749 PWs)   bands (ev):

    -4.3885  -4.3282  -2.9263  -2.7781  -2.7272  -2.7147  -2.7102  -2.6868
    -2.6468  -2.6103  -1.1104  -0.7269   4.8212   5.3972   5.8976   7.2437
     8.0838   8.1994

     occupation numbers 
     1.0000   1.0000   1.0000   1.0000   1.0000   1.0000   1.0000   1.0000
     1.0000   1.0000   1.0000   1.0000   1.0000   1.0000   1.0000   1.0000
     1.0000   1.0000

          k = 0.2500 0.5485 0.0615 ( 49748 PWs)   bands (ev):

    -4.3841  -4.3262  -2.9217  -2.7843  -2.7378  -2.7160  -2.7067  -2.6778
    -2.6458  -2.6147  -1.1040  -0.7338   4.7694   5.3237   5.8991   7.3790
     8.0553   8.2728

     occupation numbers 
     1.0000   1.0000   1.0000   1.0000   1.0000   1.0000   1.0000   1.0000
     1.0000   1.0000   1.0000   1.0000   1.0000   1.0000   1.0000   1.0000
     1.0000   1.0000

          k = 0.2500 0.5485 0.0922 ( 49757 PWs)   bands (ev):

    -4.3772  -4.3231  -2.9140  -2.7925  -2.7514  -2.7180  -2.7006  -2.6696
    -2.6439  -2.6215  -1.0935  -0.7452   4.6942   5.2137   5.9195   7.5775
     7.9661   8.4201

     occupation numbers 
     1.0000   1.0000   1.0000   1.0000   1.0000   1.0000   1.0000   1.0000
     1.0000   1.0000   1.0000   1.0000   1.0000   1.0000   1.0000   1.0000
     1.0000   1.0000

          k = 0.2500 0.5485 0.1229 ( 49745 PWs)   bands (ev):

    -4.3683  -4.3193  -2.9036  -2.8013  -2.7657  -2.7210  -2.6946  -2.6635
    -2.6416  -2.6294  -1.0790  -0.7609   4.6091   5.0813   5.9676   7.7869
     7.8694   8.5994

     occupation numbers 
     1.0000   1.0000   1.0000   1.0000   1.0000   1.0000   1.0000   1.0000
     1.0000   1.0000   1.0000   1.0000   1.0000   1.0000   1.0000   1.0000
     1.0000   1.0000

          k = 0.2500 0.5485 0.1537 ( 49739 PWs)   bands (ev):

    -4.3581  -4.3153  -2.8907  -2.8095  -2.7797  -2.7256  -2.6894  -2.6603
    -2.6407  -2.6344  -1.0605  -0.7809   4.5272   4.9406   6.0446   7.6744
     8.0888   8.7836

     occupation numbers 
     1.0000   1.0000   1.0000   1.0000   1.0000   1.0000   1.0000   1.0000
     1.0000   1.0000   1.0000   1.0000   1.0000   1.0000   1.0000   1.0000
     1.0000   1.0000

          k = 0.2500 0.5485 0.1844 ( 49749 PWs)   bands (ev):

    -4.3473  -4.3118  -2.8757  -2.8164  -2.7929  -2.7330  -2.6856  -2.6619
    -2.6418  -2.6331  -1.0384  -0.8046   4.4588   4.8032   6.1479   7.5034
     8.3512   8.9508

     occupation numbers 
     1.0000   1.0000   1.0000   1.0000   1.0000   1.0000   1.0000   1.0000
     1.0000   1.0000   1.0000   1.0000   1.0000   1.0000   1.0000   1.0000
     1.0000   1.0000

          k = 0.2500 0.5485 0.2151 ( 49733 PWs)   bands (ev):

    -4.3367  -4.3094  -2.8594  -2.8211  -2.8045  -2.7438  -2.6828  -2.6669
    -2.6399  -2.6311  -1.0131  -0.8315   4.4111   4.6777   6.2742   7.3196
     8.6015   9.0817

     occupation numbers 
     1.0000   1.0000   1.0000   1.0000   1.0000   1.0000   1.0000   1.0000
     1.0000   1.0000   1.0000   1.0000   1.0000   1.0000   1.0000   1.0000
     1.0000   1.0000

          k = 0.2500 0.5485 0.2459 ( 49733 PWs)   bands (ev):

    -4.3271  -4.3086  -2.8439  -2.8223  -2.8132  -2.7582  -2.6809  -2.6716
    -2.6367  -2.6299  -0.9850  -0.8609   4.3883   4.5701   6.4201   7.1304
     8.8230   9.1601

     occupation numbers 
     1.0000   1.0000   1.0000   1.0000   1.0000   1.0000   1.0000   1.0000
     1.0000   1.0000   1.0000   1.0000   1.0000   1.0000   1.0000   1.0000
     1.0000   1.0000

          k = 0.2500 0.5485 0.2766 ( 49712 PWs)   bands (ev):

    -4.3192  -4.3098  -2.8342  -2.8244  -2.8095  -2.7752  -2.6792  -2.6750
    -2.6336  -2.6300  -0.9549  -0.8919   4.3929   4.4850   6.5823   6.9414
     9.0004   9.1747

     occupation numbers 
     1.0000   1.0000   1.0000   1.0000   1.0000   1.0000   1.0000   1.0000
     1.0000   1.0000   1.0000   1.0000   1.0000   1.0000   1.0000   1.0000
     1.0000   1.0000

          k = 0.2500 0.5485-0.3073 ( 49692 PWs)   bands (ev):

    -4.3134  -4.3134  -2.8294  -2.8294  -2.7933  -2.7933  -2.6774  -2.6774
    -2.6313  -2.6313  -0.9236  -0.9236   4.4253   4.4253   6.7573   6.7573
     9.1206   9.1206

     occupation numbers 
     1.0000   1.0000   1.0000   1.0000   1.0000   1.0000   1.0000   1.0000
     1.0000   1.0000   1.0000   1.0000   1.0000   1.0000   1.0000   1.0000
     1.0000   1.0000

          k = 0.3000 0.5196 0.0000 ( 49720 PWs)   bands (ev):

    -4.3809  -4.3327  -2.9310  -2.7559  -2.7250  -2.7220  -2.7083  -2.6956
    -2.6508  -2.6119  -1.0915  -0.7109   5.0916   5.2169   5.8149   7.2401
     8.0425   8.0648

     occupation numbers 
     1.0000   1.0000   1.0000   1.0000   1.0000   1.0000   1.0000   1.0000
     1.0000   1.0000   1.0000   1.0000   1.0000   1.0000   1.0000   1.0000
     1.0000   1.0000

          k = 0.3000 0.5196 0.0307 ( 49724 PWs)   bands (ev):

    -4.3795  -4.3319  -2.9294  -2.7597  -2.7295  -2.7218  -2.7052  -2.6928
    -2.6503  -2.6136  -1.0893  -0.7131   5.0631   5.2087   5.8048   7.2881
     8.0210   8.1037

     occupation numbers 
     1.0000   1.0000   1.0000   1.0000   1.0000   1.0000   1.0000   1.0000
     1.0000   1.0000   1.0000   1.0000   1.0000   1.0000   1.0000   1.0000
     1.0000   1.0000

          k = 0.3000 0.5196 0.0615 ( 49722 PWs)   bands (ev):

    -4.3754  -4.3297  -2.9247  -2.7684  -2.7397  -2.7219  -2.6977  -2.6875
    -2.6485  -2.6183  -1.0830  -0.7197   4.9866   5.1790   5.7864   7.4218
     7.9587   8.2125

     occupation numbers 
     1.0000   1.0000   1.0000   1.0000   1.0000   1.0000   1.0000   1.0000
     1.0000   1.0000   1.0000   1.0000   1.0000   1.0000   1.0000   1.0000
     1.0000   1.0000

          k = 0.3000 0.5196 0.0922 ( 49742 PWs)   bands (ev):

    -4.3690  -4.3262  -2.9169  -2.7791  -2.7520  -2.7228  -2.6886  -2.6831
    -2.6457  -2.6256  -1.0724  -0.7308   4.8821   5.1186   5.7852   7.6132
     7.8652   8.3714

     occupation numbers 
     1.0000   1.0000   1.0000   1.0000   1.0000   1.0000   1.0000   1.0000
     1.0000   1.0000   1.0000   1.0000   1.0000   1.0000   1.0000   1.0000
     1.0000   1.0000

          k = 0.3000 0.5196 0.1229 ( 49758 PWs)   bands (ev):

    -4.3606  -4.3220  -2.9063  -2.7900  -2.7649  -2.7248  -2.6804  -2.6798
    -2.6420  -2.6346  -1.0578  -0.7461   4.7698   5.0266   5.8190   7.6932
     7.8914   8.5571

     occupation numbers 
     1.0000   1.0000   1.0000   1.0000   1.0000   1.0000   1.0000   1.0000
     1.0000   1.0000   1.0000   1.0000   1.0000   1.0000   1.0000   1.0000
     1.0000   1.0000

          k = 0.3000 0.5196 0.1537 ( 49758 PWs)   bands (ev):

    -4.3511  -4.3174  -2.8931  -2.8001  -2.7777  -2.7286  -2.6792  -2.6730
    -2.6430  -2.6383  -1.0393  -0.7654   4.6645   4.9151   5.8896   7.5484
     8.1370   8.7473

     occupation numbers 
     1.0000   1.0000   1.0000   1.0000   1.0000   1.0000   1.0000   1.0000
     1.0000   1.0000   1.0000   1.0000   1.0000   1.0000   1.0000   1.0000
     1.0000   1.0000

          k = 0.3000 0.5196 0.1844 ( 49754 PWs)   bands (ev):

    -4.3411  -4.3132  -2.8775  -2.8088  -2.7895  -2.7353  -2.6790  -2.6710
    -2.6469  -2.6351  -1.0173  -0.7883   4.5761   4.7990   5.9917   7.3735
     8.3959   8.9215

     occupation numbers 
     1.0000   1.0000   1.0000   1.0000   1.0000   1.0000   1.0000   1.0000
     1.0000   1.0000   1.0000   1.0000   1.0000   1.0000   1.0000   1.0000
     1.0000   1.0000

          k = 0.3000 0.5196 0.2151 ( 49735 PWs)   bands (ev):

    -4.3314  -4.3100  -2.8602  -2.8157  -2.7997  -2.7458  -2.6793  -2.6739
    -2.6449  -2.6328  -0.9922  -0.8144   4.5109   4.6905   6.1193   7.1859
     8.6412   9.0610

     occupation numbers 
     1.0000   1.0000   1.0000   1.0000   1.0000   1.0000   1.0000   1.0000
     1.0000   1.0000   1.0000   1.0000   1.0000   1.0000   1.0000   1.0000
     1.0000   1.0000

          k = 0.3000 0.5196 0.2459 ( 49730 PWs)   bands (ev):

    -4.3228  -4.3083  -2.8420  -2.8203  -2.8074  -2.7603  -2.6799  -2.6774
    -2.6407  -2.6318  -0.9644  -0.8430   4.4723   4.5979   6.2678   6.9927
     8.8556   9.1497

     occupation numbers 
     1.0000   1.0000   1.0000   1.0000   1.0000   1.0000   1.0000   1.0000
     1.0000   1.0000   1.0000   1.0000   1.0000   1.0000   1.0000   1.0000
     1.0000   1.0000

          k = 0.3000 0.5196 0.2766 ( 49716 PWs)   bands (ev):

    -4.3159  -4.3085  -2.8265  -2.8226  -2.8090  -2.7777  -2.6803  -2.6795
    -2.6367  -2.6321  -0.9348  -0.8732   4.4622   4.5267   6.4332   6.7997
     9.0239   9.1757

     occupation numbers 
     1.0000   1.0000   1.0000   1.0000   1.0000   1.0000   1.0000   1.0000
     1.0000   1.0000   1.0000   1.0000   1.0000   1.0000   1.0000   1.0000
     1.0000   1.0000

          k = 0.3000 0.5196-0.3073 ( 49714 PWs)   bands (ev):

    -4.3111  -4.3111  -2.8230  -2.8230  -2.7960  -2.7960  -2.6804  -2.6804
    -2.6338  -2.6338  -0.9041  -0.9041   4.4807   4.4807   6.6118   6.6118
     9.1333   9.1333

     occupation numbers 
     1.0000   1.0000   1.0000   1.0000   1.0000   1.0000   1.0000   1.0000
     1.0000   1.0000   1.0000   1.0000   1.0000   1.0000   1.0000   1.0000
     1.0000   1.0000

          k = 0.3000 0.5774 0.0000 ( 49714 PWs)   bands (ev):

    -4.3641  -4.3411  -2.9335  -2.7465  -2.7223  -2.7181  -2.7069  -2.6986
    -2.6579  -2.6132  -0.9475  -0.7952   5.1055   5.3841   5.5026   7.4793
     7.8313   7.9576

     occupation numbers 
     1.0000   1.0000   1.0000   1.0000   1.0000   1.0000   1.0000   1.0000
     1.0000   1.0000   1.0000   1.0000   1.0000   1.0000   1.0000   1.0000
     1.0000   1.0000

          k = 0.3000 0.5774 0.0307 ( 49728 PWs)   bands (ev):

    -4.3629  -4.3402  -2.9319  -2.7505  -2.7287  -2.7181  -2.7035  -2.6932
    -2.6580  -2.6149  -0.9464  -0.7959   5.0864   5.3542   5.5046   7.5252
     7.8664   7.9420

     occupation numbers 
     1.0000   1.0000   1.0000   1.0000   1.0000   1.0000   1.0000   1.0000
     1.0000   1.0000   1.0000   1.0000   1.0000   1.0000   1.0000   1.0000
     1.0000   1.0000

          k = 0.3000 0.5774 0.0615 ( 49741 PWs)   bands (ev):

    -4.3593  -4.3375  -2.9271  -2.7596  -2.7408  -2.7185  -2.6959  -2.6834
    -2.6581  -2.6198  -0.9432  -0.7978   5.0286   5.2720   5.5195   7.6536
     7.8564   8.0033

     occupation numbers 
     1.0000   1.0000   1.0000   1.0000   1.0000   1.0000   1.0000   1.0000
     1.0000   1.0000   1.0000   1.0000   1.0000   1.0000   1.0000   1.0000
     1.0000   1.0000

          k = 0.3000 0.5774 0.0922 ( 49750 PWs)   bands (ev):

    -4.3537  -4.3333  -2.9193  -2.7705  -2.7542  -2.7197  -2.6876  -2.6736
    -2.6582  -2.6275  -0.9379  -0.8010   4.9380   5.1547   5.5601   7.7561
     7.8431   8.1710

     occupation numbers 
     1.0000   1.0000   1.0000   1.0000   1.0000   1.0000   1.0000   1.0000
     1.0000   1.0000   1.0000   1.0000   1.0000   1.0000   1.0000   1.0000
     1.0000   1.0000

          k = 0.3000 0.5774 0.1229 ( 49747 PWs)   bands (ev):

    -4.3466  -4.3281  -2.9084  -2.7818  -2.7676  -2.7219  -2.6802  -2.6650
    -2.6577  -2.6370  -0.9307  -0.8057   4.8302   5.0209   5.6293   7.6199
     8.0698   8.3733

     occupation numbers 
     1.0000   1.0000   1.0000   1.0000   1.0000   1.0000   1.0000   1.0000
     1.0000   1.0000   1.0000   1.0000   1.0000   1.0000   1.0000   1.0000
     1.0000   1.0000

          k = 0.3000 0.5774 0.1537 ( 49738 PWs)   bands (ev):

    -4.3385  -4.3224  -2.8949  -2.7924  -2.7805  -2.7261  -2.6750  -2.6587
    -2.6560  -2.6464  -0.9218  -0.8118   4.7216   4.8856   5.7249   7.4575
     8.3125   8.5854

     occupation numbers 
     1.0000   1.0000   1.0000   1.0000   1.0000   1.0000   1.0000   1.0000
     1.0000   1.0000   1.0000   1.0000   1.0000   1.0000   1.0000   1.0000
     1.0000   1.0000

          k = 0.3000 0.5774 0.1844 ( 49733 PWs)   bands (ev):

    -4.3301  -4.3168  -2.8790  -2.8017  -2.7922  -2.7335  -2.6725  -2.6601
    -2.6528  -2.6486  -0.9114  -0.8193   4.6245   4.7598   5.8438   7.2767
     8.5522   8.7870

     occupation numbers 
     1.0000   1.0000   1.0000   1.0000   1.0000   1.0000   1.0000   1.0000
     1.0000   1.0000   1.0000   1.0000   1.0000   1.0000   1.0000   1.0000
     1.0000   1.0000

          k = 0.3000 0.5774 0.2151 ( 49736 PWs)   bands (ev):

    -4.3223  -4.3120  -2.8612  -2.8092  -2.8022  -2.7449  -2.6720  -2.6663
    -2.6489  -2.6452  -0.8999  -0.8283   4.5468   4.6511   5.9830   7.0844
     8.7715   8.9594

     occupation numbers 
     1.0000   1.0000   1.0000   1.0000   1.0000   1.0000   1.0000   1.0000
     1.0000   1.0000   1.0000   1.0000   1.0000   1.0000   1.0000   1.0000
     1.0000   1.0000

          k = 0.3000 0.5774 0.2459 ( 49726 PWs)   bands (ev):

    -4.3156  -4.3086  -2.8419  -2.8142  -2.8102  -2.7604  -2.6724  -2.6705
    -2.6453  -2.6424  -0.8876  -0.8386   4.4938   4.5647   6.1401   6.8868
     8.9541   9.0860

     occupation numbers 
     1.0000   1.0000   1.0000   1.0000   1.0000   1.0000   1.0000   1.0000
     1.0000   1.0000   1.0000   1.0000   1.0000   1.0000   1.0000   1.0000
     1.0000   1.0000

          k = 0.3000 0.5774 0.2766 ( 49715 PWs)   bands (ev):

    -4.3106  -4.3070  -2.8239  -2.8157  -2.8146  -2.7789  -2.6729  -2.6726
    -2.6426  -2.6411  -0.8749  -0.8500   4.4682   4.5041   6.3123   6.6893
     9.0853   9.1535

     occupation numbers 
     1.0000   1.0000   1.0000   1.0000   1.0000   1.0000   1.0000   1.0000
     1.0000   1.0000   1.0000   1.0000   1.0000   1.0000   1.0000   1.0000
     1.0000   1.0000

          k = 0.3000 0.5774-0.3073 ( 49722 PWs)   bands (ev):

    -4.3077  -4.3077  -2.8189  -2.8189  -2.7987  -2.7987  -2.6732  -2.6732
    -2.6411  -2.6411  -0.8622  -0.8622   4.4716   4.4716   6.4965   6.4965
     9.1537   9.1537

     occupation numbers 
     1.0000   1.0000   1.0000   1.0000   1.0000   1.0000   1.0000   1.0000
     1.0000   1.0000   1.0000   1.0000   1.0000   1.0000   1.0000   1.0000
     1.0000   1.0000

     highest occupied level (ev):    10.6171

!    total energy              =    -347.51880688 Ry
     estimated scf accuracy    <          9.3E-09 Ry

     The total energy is the sum of the following terms:
     one-electron contribution =    -105.66974326 Ry
     hartree contribution      =      87.58585599 Ry
     xc contribution           =     -96.27809271 Ry
     ewald contribution        =    -233.15682690 Ry

     convergence has been achieved in  19 iterations

     Writing output data file ../tmp/GaN_exc1.save/
 
     init_run     :     49.56s CPU     50.28s WALL (       1 calls)
     electrons    :   1971.19s CPU   1983.67s WALL (       1 calls)

     Called by init_run:
     wfcinit      :     47.63s CPU     48.28s WALL (       1 calls)
     wfcinit:atom :      1.16s CPU      1.17s WALL (     484 calls)
     wfcinit:wfcr :     41.66s CPU     41.85s WALL (     484 calls)
     potinit      :      0.47s CPU      0.48s WALL (       1 calls)
     hinit0       :      0.88s CPU      0.92s WALL (       1 calls)

     Called by electrons:
     c_bands      :   1678.03s CPU   1686.66s WALL (      19 calls)
     sum_band     :    291.05s CPU    294.36s WALL (      19 calls)
     v_of_rho     :      1.54s CPU      1.84s WALL (      20 calls)
     v_h          :      0.10s CPU      0.10s WALL (      20 calls)
     v_xc         :      1.44s CPU      1.74s WALL (      20 calls)
     mix_rho      :      0.56s CPU      0.78s WALL (      19 calls)

     Called by c_bands:
     init_us_2    :     53.58s CPU     53.86s WALL (   18876 calls)
     cegterg      :   1501.41s CPU   1507.54s WALL (    9196 calls)

     Called by sum_band:
     sum_band:wei :      0.00s CPU      0.00s WALL (      19 calls)
     sum_band:loo :    290.77s CPU    294.03s WALL (      19 calls)
     sum_band:buf :      6.84s CPU      8.99s WALL (    9196 calls)
     sum_band:ini :     26.07s CPU     26.18s WALL (    9196 calls)

     Called by *egterg:
     cdiaghg      :     22.04s CPU     22.22s WALL (   30055 calls)
     cegterg:over :     54.08s CPU     54.24s WALL (   20859 calls)
     cegterg:upda :     48.46s CPU     48.68s WALL (   20859 calls)
     cegterg:last :     77.02s CPU     77.17s WALL (   16557 calls)
     cdiaghg:chol :      2.80s CPU      2.82s WALL (   30055 calls)
     cdiaghg:inve :      0.54s CPU      0.55s WALL (   30055 calls)
     cdiaghg:para :      2.48s CPU      2.47s WALL (   60110 calls)
     h_psi        :   1289.29s CPU   1294.86s WALL (   30539 calls)
     g_psi        :      7.48s CPU      7.54s WALL (   20859 calls)

     Called by h_psi:
     h_psi:calbec :     52.55s CPU     52.73s WALL (   30539 calls)
     vloc_psi     :   1143.85s CPU   1149.05s WALL (   30539 calls)
     add_vuspsi   :     79.77s CPU     79.92s WALL (   30539 calls)

     General routines
     calbec       :     52.42s CPU     52.65s WALL (   30539 calls)
     fft          :      0.65s CPU      0.71s WALL (     200 calls)
     ffts         :      0.06s CPU      0.06s WALL (      19 calls)
     fftw         :   1091.22s CPU   1096.13s WALL ( 1017128 calls)
 
     Parallel routines
 
     PWSCF        :  33m45.91s CPU  34m 7.98s WALL

 
   This run was terminated on:  19:32: 3  27Mar2023            

=------------------------------------------------------------------------------=
   JOB DONE.
=------------------------------------------------------------------------------=
