
     Program PWSCF v.6.8 starts on 28Mar2023 at 10:40:34 

     This program is part of the open-source Quantum ESPRESSO suite
     for quantum simulation of materials; please cite
         "P. Giannozzi et al., J. Phys.:Condens. Matter 21 395502 (2009);
         "P. Giannozzi et al., J. Phys.:Condens. Matter 29 465901 (2017);
         "P. Giannozzi et al., J. Chem. Phys. 152 154105 (2020);
          URL http://www.quantum-espresso.org", 
     in publications or presentations arising from this work. More details at
     http://www.quantum-espresso.org/quote

     Parallel version (MPI & OpenMP), running on       6 processor cores
     Number of MPI processes:                 6
     Threads/MPI process:                     1

     MPI processes distributed on     1 nodes
     R & G space division:  proc/nbgrp/npool/nimage =       6
     194186 MiB available memory on the printing compute node when the environment starts
 
     Waiting for input...
     Reading input from standard input
Warning: card &CELL ignored
Warning: card / ignored

     Current dimensions of program PWSCF are:
     Max number of different atomic species (ntypx) = 10
     Max number of k-points (npk) =  40000
     Max angular momentum in pseudopotentials (lmaxx) =  4

     Subspace diagonalization in iterative solution of the eigenvalue problem:
     one sub-group per band group will be used
     scalapack distributed-memory algorithm (size of sub-group:  2*  2 procs)

 
     Parallelization info
     --------------------
     sticks:   dense  smooth     PW     G-vecs:    dense   smooth      PW
     Min         332     332     93                19646    19646    2883
     Max         333     333     94                19651    19651    2888
     Sum        1993    1993    559               117881   117881   17309
 
     Using Slab Decomposition
 


     bravais-lattice index     =            4
     lattice parameter (alat)  =       6.0282  a.u.
     unit-cell volume          =     308.6570 (a.u.)^3
     number of atoms/cell      =            4
     number of atomic types    =            2
     number of electrons       =        36.00
     number of Kohn-Sham states=           18
     kinetic-energy cutoff     =     200.0000  Ry
     charge density cutoff     =     800.0000  Ry
     scf convergence threshold =      1.0E-06
     mixing beta               =       0.7000
     number of iterations used =            8  plain     mixing
     Exchange-correlation= PBE
                           (   1   4   3   4   0   0   0)

     celldm(1)=   6.028226  celldm(2)=   0.000000  celldm(3)=   1.626960
     celldm(4)=   0.000000  celldm(5)=   0.000000  celldm(6)=   0.000000

     crystal axes: (cart. coord. in units of alat)
               a(1) = (   1.000000   0.000000   0.000000 )  
               a(2) = (  -0.500000   0.866025   0.000000 )  
               a(3) = (   0.000000   0.000000   1.626960 )  

     reciprocal axes: (cart. coord. in units 2 pi/alat)
               b(1) = (  1.000000  0.577350  0.000000 )  
               b(2) = (  0.000000  1.154701  0.000000 )  
               b(3) = (  0.000000  0.000000  0.614643 )  


     PseudoPot. # 1 for Ga read from file:
     ../pseudo/Ga_ONCV_PBE_sr.upf
     MD5 check sum: e3654b1fbeb096be7359f640ef9d98d7
     Pseudo is Norm-conserving + core correction, Zval = 13.0
     Generated using ONCVPSP code by D. R. Hamann
     Using radial grid of 1902 points,  6 beta functions with: 
                l(1) =   0
                l(2) =   0
                l(3) =   1
                l(4) =   1
                l(5) =   2
                l(6) =   2

     PseudoPot. # 2 for N  read from file:
     ../pseudo/N_ONCV_PBE_sr.upf
     MD5 check sum: 18c6af81dac9c5a2d6d52ed11cf7bfee
     Pseudo is Norm-conserving + core correction, Zval =  5.0
     Generated using ONCVPSP code by D. R. Hamann
     Using radial grid of 1058 points,  4 beta functions with: 
                l(1) =   0
                l(2) =   0
                l(3) =   1
                l(4) =   1

     atomic species   valence    mass     pseudopotential
        Ga            13.00    69.72300     Ga( 1.00)
        N              5.00    14.00700     N ( 1.00)

     12 Sym. Ops. (no inversion) found ( 6 have fractional translation)


                                    s                        frac. trans.

      isym =  1     identity                                     

 cryst.   s( 1) = (     1          0          0      )
                  (     0          1          0      )
                  (     0          0          1      )

 cart.    s( 1) = (  1.0000000  0.0000000  0.0000000 )
                  (  0.0000000  1.0000000  0.0000000 )
                  (  0.0000000  0.0000000  1.0000000 )


      isym =  2     180 deg rotation - cart. axis [0,0,1]        

 cryst.   s( 2) = (    -1          0          0      )    f =(  0.0000000 )
                  (     0         -1          0      )       (  0.0000000 )
                  (     0          0          1      )       ( -0.5000000 )

 cart.    s( 2) = ( -1.0000000  0.0000000  0.0000000 )    f =(  0.0000000 )
                  (  0.0000000 -1.0000000  0.0000000 )       (  0.0000000 )
                  (  0.0000000  0.0000000  1.0000000 )       ( -0.8134800 )


      isym =  3      60 deg rotation - cryst. axis [0,0,1]       

 cryst.   s( 3) = (     1          1          0      )    f =(  0.0000000 )
                  (    -1          0          0      )       (  0.0000000 )
                  (     0          0          1      )       ( -0.5000000 )

 cart.    s( 3) = (  0.5000000 -0.8660254  0.0000000 )    f =(  0.0000000 )
                  (  0.8660254  0.5000000  0.0000000 )       (  0.0000000 )
                  (  0.0000000  0.0000000  1.0000000 )       ( -0.8134800 )


      isym =  4      60 deg rotation - cryst. axis [0,0,-1]      

 cryst.   s( 4) = (     0         -1          0      )    f =(  0.0000000 )
                  (     1          1          0      )       (  0.0000000 )
                  (     0          0          1      )       ( -0.5000000 )

 cart.    s( 4) = (  0.5000000  0.8660254  0.0000000 )    f =(  0.0000000 )
                  ( -0.8660254  0.5000000  0.0000000 )       (  0.0000000 )
                  (  0.0000000  0.0000000  1.0000000 )       ( -0.8134800 )


      isym =  5     120 deg rotation - cryst. axis [0,0,1]       

 cryst.   s( 5) = (     0          1          0      )
                  (    -1         -1          0      )
                  (     0          0          1      )

 cart.    s( 5) = ( -0.5000000 -0.8660254  0.0000000 )
                  (  0.8660254 -0.5000000  0.0000000 )
                  (  0.0000000  0.0000000  1.0000000 )


      isym =  6     120 deg rotation - cryst. axis [0,0,-1]      

 cryst.   s( 6) = (    -1         -1          0      )
                  (     1          0          0      )
                  (     0          0          1      )

 cart.    s( 6) = ( -0.5000000  0.8660254  0.0000000 )
                  ( -0.8660254 -0.5000000  0.0000000 )
                  (  0.0000000  0.0000000  1.0000000 )


      isym =  7     inv. 180 deg rotation - cart. axis [0,1,0]   

 cryst.   s( 7) = (     1          0          0      )    f =(  0.0000000 )
                  (    -1         -1          0      )       (  0.0000000 )
                  (     0          0          1      )       ( -0.5000000 )

 cart.    s( 7) = (  1.0000000  0.0000000  0.0000000 )    f =(  0.0000000 )
                  (  0.0000000 -1.0000000  0.0000000 )       (  0.0000000 )
                  (  0.0000000  0.0000000  1.0000000 )       ( -0.8134800 )


      isym =  8     inv. 180 deg rotation - cart. axis [1,0,0]   

 cryst.   s( 8) = (    -1          0          0      )
                  (     1          1          0      )
                  (     0          0          1      )

 cart.    s( 8) = ( -1.0000000  0.0000000  0.0000000 )
                  (  0.0000000  1.0000000  0.0000000 )
                  (  0.0000000  0.0000000  1.0000000 )


      isym =  9     inv. 180 deg rotation - cryst. axis [1,-1,0] 

 cryst.   s( 9) = (     0          1          0      )    f =(  0.0000000 )
                  (     1          0          0      )       (  0.0000000 )
                  (     0          0          1      )       ( -0.5000000 )

 cart.    s( 9) = ( -0.5000000  0.8660254  0.0000000 )    f =(  0.0000000 )
                  (  0.8660254  0.5000000  0.0000000 )       (  0.0000000 )
                  (  0.0000000  0.0000000  1.0000000 )       ( -0.8134800 )


      isym = 10     inv. 180 deg rotation - cryst. axis [2,1,0]  

 cryst.   s(10) = (    -1         -1          0      )    f =(  0.0000000 )
                  (     0          1          0      )       (  0.0000000 )
                  (     0          0          1      )       ( -0.5000000 )

 cart.    s(10) = ( -0.5000000 -0.8660254  0.0000000 )    f =(  0.0000000 )
                  ( -0.8660254  0.5000000  0.0000000 )       (  0.0000000 )
                  (  0.0000000  0.0000000  1.0000000 )       ( -0.8134800 )


      isym = 11     inv. 180 deg rotation - cryst. axis [0,1,0]  

 cryst.   s(11) = (     1          1          0      )
                  (     0         -1          0      )
                  (     0          0          1      )

 cart.    s(11) = (  0.5000000  0.8660254  0.0000000 )
                  (  0.8660254 -0.5000000  0.0000000 )
                  (  0.0000000  0.0000000  1.0000000 )


      isym = 12     inv. 180 deg rotation - cryst. axis [1,1,0]  

 cryst.   s(12) = (     0         -1          0      )
                  (    -1          0          0      )
                  (     0          0          1      )

 cart.    s(12) = (  0.5000000 -0.8660254  0.0000000 )
                  ( -0.8660254 -0.5000000  0.0000000 )
                  (  0.0000000  0.0000000  1.0000000 )


     point group C_6v (6mm) 
     there are  6 classes
     the character table:

       E     2C6   2C3   C2    3s_v  3s_d 
A_1    1.00  1.00  1.00  1.00  1.00  1.00
A_2    1.00  1.00  1.00  1.00 -1.00 -1.00
B_1    1.00 -1.00  1.00 -1.00  1.00 -1.00
B_2    1.00 -1.00  1.00 -1.00 -1.00  1.00
E_1    2.00  1.00 -1.00 -2.00  0.00  0.00
E_2    2.00 -1.00 -1.00  2.00  0.00  0.00

     the symmetry operations in each class and the name of the first element:

     E        1
          identity                                               
     2C6      3    4
           60 deg rotation - cryst. axis [0,0,1]                 
     2C3      5    6
          120 deg rotation - cryst. axis [0,0,1]                 
     C2       2
          180 deg rotation - cart. axis [0,0,1]                  
     3s_v     8   12   11
          inv. 180 deg rotation - cart. axis [1,0,0]             
     3s_d     7    9   10
          inv. 180 deg rotation - cart. axis [0,1,0]             

   Cartesian axes

     site n.     atom                  positions (alat units)
         1           Ga  tau(   1) = (   0.5000000   0.2886751   0.8119892  )
         2           Ga  tau(   2) = (   0.0000000   0.5773503   1.6254692  )
         3           N   tau(   3) = (   0.5000000   0.2886751   1.4250808  )
         4           N   tau(   4) = (   0.0000000   0.5773503   0.6116008  )

   Crystallographic axes

     site n.     atom                  positions (cryst. coord.)
         1           Ga  tau(   1) = (  0.6666667  0.3333333  0.4990837  )
         2           Ga  tau(   2) = (  0.3333333  0.6666667  0.9990837  )
         3           N   tau(   3) = (  0.6666667  0.3333333  0.8759163  )
         4           N   tau(   4) = (  0.3333333  0.6666667  0.3759163  )

     number of k points=   216
                       cart. coord. in units 2pi/alat
        k(    1) = (   0.0000000   0.0000000   0.0000000), wk =   0.0005926
        k(    2) = (   0.0000000   0.0000000   0.0409762), wk =   0.0011852
        k(    3) = (   0.0000000   0.0000000   0.0819524), wk =   0.0011852
        k(    4) = (   0.0000000   0.0000000   0.1229287), wk =   0.0011852
        k(    5) = (   0.0000000   0.0000000   0.1639049), wk =   0.0011852
        k(    6) = (   0.0000000   0.0000000   0.2048811), wk =   0.0011852
        k(    7) = (   0.0000000   0.0000000   0.2458573), wk =   0.0011852
        k(    8) = (   0.0000000   0.0000000   0.2868335), wk =   0.0011852
        k(    9) = (   0.0000000   0.0769800   0.0000000), wk =   0.0035556
        k(   10) = (   0.0000000   0.0769800   0.0409762), wk =   0.0071111
        k(   11) = (   0.0000000   0.0769800   0.0819524), wk =   0.0071111
        k(   12) = (   0.0000000   0.0769800   0.1229287), wk =   0.0071111
        k(   13) = (   0.0000000   0.0769800   0.1639049), wk =   0.0071111
        k(   14) = (   0.0000000   0.0769800   0.2048811), wk =   0.0071111
        k(   15) = (   0.0000000   0.0769800   0.2458573), wk =   0.0071111
        k(   16) = (   0.0000000   0.0769800   0.2868335), wk =   0.0071111
        k(   17) = (   0.0000000   0.1539601   0.0000000), wk =   0.0035556
        k(   18) = (   0.0000000   0.1539601   0.0409762), wk =   0.0071111
        k(   19) = (   0.0000000   0.1539601   0.0819524), wk =   0.0071111
        k(   20) = (   0.0000000   0.1539601   0.1229287), wk =   0.0071111
        k(   21) = (   0.0000000   0.1539601   0.1639049), wk =   0.0071111
        k(   22) = (   0.0000000   0.1539601   0.2048811), wk =   0.0071111
        k(   23) = (   0.0000000   0.1539601   0.2458573), wk =   0.0071111
        k(   24) = (   0.0000000   0.1539601   0.2868335), wk =   0.0071111
        k(   25) = (   0.0000000   0.2309401   0.0000000), wk =   0.0035556
        k(   26) = (   0.0000000   0.2309401   0.0409762), wk =   0.0071111
        k(   27) = (   0.0000000   0.2309401   0.0819524), wk =   0.0071111
        k(   28) = (   0.0000000   0.2309401   0.1229287), wk =   0.0071111
        k(   29) = (   0.0000000   0.2309401   0.1639049), wk =   0.0071111
        k(   30) = (   0.0000000   0.2309401   0.2048811), wk =   0.0071111
        k(   31) = (   0.0000000   0.2309401   0.2458573), wk =   0.0071111
        k(   32) = (   0.0000000   0.2309401   0.2868335), wk =   0.0071111
        k(   33) = (   0.0000000   0.3079201   0.0000000), wk =   0.0035556
        k(   34) = (   0.0000000   0.3079201   0.0409762), wk =   0.0071111
        k(   35) = (   0.0000000   0.3079201   0.0819524), wk =   0.0071111
        k(   36) = (   0.0000000   0.3079201   0.1229287), wk =   0.0071111
        k(   37) = (   0.0000000   0.3079201   0.1639049), wk =   0.0071111
        k(   38) = (   0.0000000   0.3079201   0.2048811), wk =   0.0071111
        k(   39) = (   0.0000000   0.3079201   0.2458573), wk =   0.0071111
        k(   40) = (   0.0000000   0.3079201   0.2868335), wk =   0.0071111
        k(   41) = (   0.0000000   0.3849002   0.0000000), wk =   0.0035556
        k(   42) = (   0.0000000   0.3849002   0.0409762), wk =   0.0071111
        k(   43) = (   0.0000000   0.3849002   0.0819524), wk =   0.0071111
        k(   44) = (   0.0000000   0.3849002   0.1229287), wk =   0.0071111
        k(   45) = (   0.0000000   0.3849002   0.1639049), wk =   0.0071111
        k(   46) = (   0.0000000   0.3849002   0.2048811), wk =   0.0071111
        k(   47) = (   0.0000000   0.3849002   0.2458573), wk =   0.0071111
        k(   48) = (   0.0000000   0.3849002   0.2868335), wk =   0.0071111
        k(   49) = (   0.0000000   0.4618802   0.0000000), wk =   0.0035556
        k(   50) = (   0.0000000   0.4618802   0.0409762), wk =   0.0071111
        k(   51) = (   0.0000000   0.4618802   0.0819524), wk =   0.0071111
        k(   52) = (   0.0000000   0.4618802   0.1229287), wk =   0.0071111
        k(   53) = (   0.0000000   0.4618802   0.1639049), wk =   0.0071111
        k(   54) = (   0.0000000   0.4618802   0.2048811), wk =   0.0071111
        k(   55) = (   0.0000000   0.4618802   0.2458573), wk =   0.0071111
        k(   56) = (   0.0000000   0.4618802   0.2868335), wk =   0.0071111
        k(   57) = (   0.0000000   0.5388603   0.0000000), wk =   0.0035556
        k(   58) = (   0.0000000   0.5388603   0.0409762), wk =   0.0071111
        k(   59) = (   0.0000000   0.5388603   0.0819524), wk =   0.0071111
        k(   60) = (   0.0000000   0.5388603   0.1229287), wk =   0.0071111
        k(   61) = (   0.0000000   0.5388603   0.1639049), wk =   0.0071111
        k(   62) = (   0.0000000   0.5388603   0.2048811), wk =   0.0071111
        k(   63) = (   0.0000000   0.5388603   0.2458573), wk =   0.0071111
        k(   64) = (   0.0000000   0.5388603   0.2868335), wk =   0.0071111
        k(   65) = (   0.0666667   0.1154701   0.0000000), wk =   0.0035556
        k(   66) = (   0.0666667   0.1154701   0.0409762), wk =   0.0071111
        k(   67) = (   0.0666667   0.1154701   0.0819524), wk =   0.0071111
        k(   68) = (   0.0666667   0.1154701   0.1229287), wk =   0.0071111
        k(   69) = (   0.0666667   0.1154701   0.1639049), wk =   0.0071111
        k(   70) = (   0.0666667   0.1154701   0.2048811), wk =   0.0071111
        k(   71) = (   0.0666667   0.1154701   0.2458573), wk =   0.0071111
        k(   72) = (   0.0666667   0.1154701   0.2868335), wk =   0.0071111
        k(   73) = (   0.0666667   0.1924501   0.0000000), wk =   0.0071111
        k(   74) = (   0.0666667   0.1924501   0.0409762), wk =   0.0142222
        k(   75) = (   0.0666667   0.1924501   0.0819524), wk =   0.0142222
        k(   76) = (   0.0666667   0.1924501   0.1229287), wk =   0.0142222
        k(   77) = (   0.0666667   0.1924501   0.1639049), wk =   0.0142222
        k(   78) = (   0.0666667   0.1924501   0.2048811), wk =   0.0142222
        k(   79) = (   0.0666667   0.1924501   0.2458573), wk =   0.0142222
        k(   80) = (   0.0666667   0.1924501   0.2868335), wk =   0.0142222
        k(   81) = (   0.0666667   0.2694301   0.0000000), wk =   0.0071111
        k(   82) = (   0.0666667   0.2694301   0.0409762), wk =   0.0142222
        k(   83) = (   0.0666667   0.2694301   0.0819524), wk =   0.0142222
        k(   84) = (   0.0666667   0.2694301   0.1229287), wk =   0.0142222
        k(   85) = (   0.0666667   0.2694301   0.1639049), wk =   0.0142222
        k(   86) = (   0.0666667   0.2694301   0.2048811), wk =   0.0142222
        k(   87) = (   0.0666667   0.2694301   0.2458573), wk =   0.0142222
        k(   88) = (   0.0666667   0.2694301   0.2868335), wk =   0.0142222
        k(   89) = (   0.0666667   0.3464102   0.0000000), wk =   0.0071111
        k(   90) = (   0.0666667   0.3464102   0.0409762), wk =   0.0142222
        k(   91) = (   0.0666667   0.3464102   0.0819524), wk =   0.0142222
        k(   92) = (   0.0666667   0.3464102   0.1229287), wk =   0.0142222
        k(   93) = (   0.0666667   0.3464102   0.1639049), wk =   0.0142222
        k(   94) = (   0.0666667   0.3464102   0.2048811), wk =   0.0142222
        k(   95) = (   0.0666667   0.3464102   0.2458573), wk =   0.0142222
        k(   96) = (   0.0666667   0.3464102   0.2868335), wk =   0.0142222
        k(   97) = (   0.0666667   0.4233902   0.0000000), wk =   0.0071111
        k(   98) = (   0.0666667   0.4233902   0.0409762), wk =   0.0142222
        k(   99) = (   0.0666667   0.4233902   0.0819524), wk =   0.0142222
        k(  100) = (   0.0666667   0.4233902   0.1229287), wk =   0.0142222
        k(  101) = (   0.0666667   0.4233902   0.1639049), wk =   0.0142222
        k(  102) = (   0.0666667   0.4233902   0.2048811), wk =   0.0142222
        k(  103) = (   0.0666667   0.4233902   0.2458573), wk =   0.0142222
        k(  104) = (   0.0666667   0.4233902   0.2868335), wk =   0.0142222
        k(  105) = (   0.0666667   0.5003702   0.0000000), wk =   0.0071111
        k(  106) = (   0.0666667   0.5003702   0.0409762), wk =   0.0142222
        k(  107) = (   0.0666667   0.5003702   0.0819524), wk =   0.0142222
        k(  108) = (   0.0666667   0.5003702   0.1229287), wk =   0.0142222
        k(  109) = (   0.0666667   0.5003702   0.1639049), wk =   0.0142222
        k(  110) = (   0.0666667   0.5003702   0.2048811), wk =   0.0142222
        k(  111) = (   0.0666667   0.5003702   0.2458573), wk =   0.0142222
        k(  112) = (   0.0666667   0.5003702   0.2868335), wk =   0.0142222
        k(  113) = (   0.0666667   0.5773503   0.0000000), wk =   0.0035556
        k(  114) = (   0.0666667   0.5773503   0.0409762), wk =   0.0071111
        k(  115) = (   0.0666667   0.5773503   0.0819524), wk =   0.0071111
        k(  116) = (   0.0666667   0.5773503   0.1229287), wk =   0.0071111
        k(  117) = (   0.0666667   0.5773503   0.1639049), wk =   0.0071111
        k(  118) = (   0.0666667   0.5773503   0.2048811), wk =   0.0071111
        k(  119) = (   0.0666667   0.5773503   0.2458573), wk =   0.0071111
        k(  120) = (   0.0666667   0.5773503   0.2868335), wk =   0.0071111
        k(  121) = (   0.1333333   0.2309401   0.0000000), wk =   0.0035556
        k(  122) = (   0.1333333   0.2309401   0.0409762), wk =   0.0071111
        k(  123) = (   0.1333333   0.2309401   0.0819524), wk =   0.0071111
        k(  124) = (   0.1333333   0.2309401   0.1229287), wk =   0.0071111
        k(  125) = (   0.1333333   0.2309401   0.1639049), wk =   0.0071111
        k(  126) = (   0.1333333   0.2309401   0.2048811), wk =   0.0071111
        k(  127) = (   0.1333333   0.2309401   0.2458573), wk =   0.0071111
        k(  128) = (   0.1333333   0.2309401   0.2868335), wk =   0.0071111
        k(  129) = (   0.1333333   0.3079201   0.0000000), wk =   0.0071111
        k(  130) = (   0.1333333   0.3079201   0.0409762), wk =   0.0142222
        k(  131) = (   0.1333333   0.3079201   0.0819524), wk =   0.0142222
        k(  132) = (   0.1333333   0.3079201   0.1229287), wk =   0.0142222
        k(  133) = (   0.1333333   0.3079201   0.1639049), wk =   0.0142222
        k(  134) = (   0.1333333   0.3079201   0.2048811), wk =   0.0142222
        k(  135) = (   0.1333333   0.3079201   0.2458573), wk =   0.0142222
        k(  136) = (   0.1333333   0.3079201   0.2868335), wk =   0.0142222
        k(  137) = (   0.1333333   0.3849002   0.0000000), wk =   0.0071111
        k(  138) = (   0.1333333   0.3849002   0.0409762), wk =   0.0142222
        k(  139) = (   0.1333333   0.3849002   0.0819524), wk =   0.0142222
        k(  140) = (   0.1333333   0.3849002   0.1229287), wk =   0.0142222
        k(  141) = (   0.1333333   0.3849002   0.1639049), wk =   0.0142222
        k(  142) = (   0.1333333   0.3849002   0.2048811), wk =   0.0142222
        k(  143) = (   0.1333333   0.3849002   0.2458573), wk =   0.0142222
        k(  144) = (   0.1333333   0.3849002   0.2868335), wk =   0.0142222
        k(  145) = (   0.1333333   0.4618802   0.0000000), wk =   0.0071111
        k(  146) = (   0.1333333   0.4618802   0.0409762), wk =   0.0142222
        k(  147) = (   0.1333333   0.4618802   0.0819524), wk =   0.0142222
        k(  148) = (   0.1333333   0.4618802   0.1229287), wk =   0.0142222
        k(  149) = (   0.1333333   0.4618802   0.1639049), wk =   0.0142222
        k(  150) = (   0.1333333   0.4618802   0.2048811), wk =   0.0142222
        k(  151) = (   0.1333333   0.4618802   0.2458573), wk =   0.0142222
        k(  152) = (   0.1333333   0.4618802   0.2868335), wk =   0.0142222
        k(  153) = (   0.1333333   0.5388603   0.0000000), wk =   0.0071111
        k(  154) = (   0.1333333   0.5388603   0.0409762), wk =   0.0142222
        k(  155) = (   0.1333333   0.5388603   0.0819524), wk =   0.0142222
        k(  156) = (   0.1333333   0.5388603   0.1229287), wk =   0.0142222
        k(  157) = (   0.1333333   0.5388603   0.1639049), wk =   0.0142222
        k(  158) = (   0.1333333   0.5388603   0.2048811), wk =   0.0142222
        k(  159) = (   0.1333333   0.5388603   0.2458573), wk =   0.0142222
        k(  160) = (   0.1333333   0.5388603   0.2868335), wk =   0.0142222
        k(  161) = (   0.2000000   0.3464102   0.0000000), wk =   0.0035556
        k(  162) = (   0.2000000   0.3464102   0.0409762), wk =   0.0071111
        k(  163) = (   0.2000000   0.3464102   0.0819524), wk =   0.0071111
        k(  164) = (   0.2000000   0.3464102   0.1229287), wk =   0.0071111
        k(  165) = (   0.2000000   0.3464102   0.1639049), wk =   0.0071111
        k(  166) = (   0.2000000   0.3464102   0.2048811), wk =   0.0071111
        k(  167) = (   0.2000000   0.3464102   0.2458573), wk =   0.0071111
        k(  168) = (   0.2000000   0.3464102   0.2868335), wk =   0.0071111
        k(  169) = (   0.2000000   0.4233902   0.0000000), wk =   0.0071111
        k(  170) = (   0.2000000   0.4233902   0.0409762), wk =   0.0142222
        k(  171) = (   0.2000000   0.4233902   0.0819524), wk =   0.0142222
        k(  172) = (   0.2000000   0.4233902   0.1229287), wk =   0.0142222
        k(  173) = (   0.2000000   0.4233902   0.1639049), wk =   0.0142222
        k(  174) = (   0.2000000   0.4233902   0.2048811), wk =   0.0142222
        k(  175) = (   0.2000000   0.4233902   0.2458573), wk =   0.0142222
        k(  176) = (   0.2000000   0.4233902   0.2868335), wk =   0.0142222
        k(  177) = (   0.2000000   0.5003702   0.0000000), wk =   0.0071111
        k(  178) = (   0.2000000   0.5003702   0.0409762), wk =   0.0142222
        k(  179) = (   0.2000000   0.5003702   0.0819524), wk =   0.0142222
        k(  180) = (   0.2000000   0.5003702   0.1229287), wk =   0.0142222
        k(  181) = (   0.2000000   0.5003702   0.1639049), wk =   0.0142222
        k(  182) = (   0.2000000   0.5003702   0.2048811), wk =   0.0142222
        k(  183) = (   0.2000000   0.5003702   0.2458573), wk =   0.0142222
        k(  184) = (   0.2000000   0.5003702   0.2868335), wk =   0.0142222
        k(  185) = (   0.2000000   0.5773503   0.0000000), wk =   0.0035556
        k(  186) = (   0.2000000   0.5773503   0.0409762), wk =   0.0071111
        k(  187) = (   0.2000000   0.5773503   0.0819524), wk =   0.0071111
        k(  188) = (   0.2000000   0.5773503   0.1229287), wk =   0.0071111
        k(  189) = (   0.2000000   0.5773503   0.1639049), wk =   0.0071111
        k(  190) = (   0.2000000   0.5773503   0.2048811), wk =   0.0071111
        k(  191) = (   0.2000000   0.5773503   0.2458573), wk =   0.0071111
        k(  192) = (   0.2000000   0.5773503   0.2868335), wk =   0.0071111
        k(  193) = (   0.2666667   0.4618802   0.0000000), wk =   0.0035556
        k(  194) = (   0.2666667   0.4618802   0.0409762), wk =   0.0071111
        k(  195) = (   0.2666667   0.4618802   0.0819524), wk =   0.0071111
        k(  196) = (   0.2666667   0.4618802   0.1229287), wk =   0.0071111
        k(  197) = (   0.2666667   0.4618802   0.1639049), wk =   0.0071111
        k(  198) = (   0.2666667   0.4618802   0.2048811), wk =   0.0071111
        k(  199) = (   0.2666667   0.4618802   0.2458573), wk =   0.0071111
        k(  200) = (   0.2666667   0.4618802   0.2868335), wk =   0.0071111
        k(  201) = (   0.2666667   0.5388603   0.0000000), wk =   0.0071111
        k(  202) = (   0.2666667   0.5388603   0.0409762), wk =   0.0142222
        k(  203) = (   0.2666667   0.5388603   0.0819524), wk =   0.0142222
        k(  204) = (   0.2666667   0.5388603   0.1229287), wk =   0.0142222
        k(  205) = (   0.2666667   0.5388603   0.1639049), wk =   0.0142222
        k(  206) = (   0.2666667   0.5388603   0.2048811), wk =   0.0142222
        k(  207) = (   0.2666667   0.5388603   0.2458573), wk =   0.0142222
        k(  208) = (   0.2666667   0.5388603   0.2868335), wk =   0.0142222
        k(  209) = (   0.3333333   0.5773503   0.0000000), wk =   0.0011852
        k(  210) = (   0.3333333   0.5773503   0.0409762), wk =   0.0023704
        k(  211) = (   0.3333333   0.5773503   0.0819524), wk =   0.0023704
        k(  212) = (   0.3333333   0.5773503   0.1229287), wk =   0.0023704
        k(  213) = (   0.3333333   0.5773503   0.1639049), wk =   0.0023704
        k(  214) = (   0.3333333   0.5773503   0.2048811), wk =   0.0023704
        k(  215) = (   0.3333333   0.5773503   0.2458573), wk =   0.0023704
        k(  216) = (   0.3333333   0.5773503   0.2868335), wk =   0.0023704

                       cryst. coord.
        k(    1) = (   0.0000000   0.0000000   0.0000000), wk =   0.0005926
        k(    2) = (   0.0000000   0.0000000   0.0666667), wk =   0.0011852
        k(    3) = (   0.0000000   0.0000000   0.1333333), wk =   0.0011852
        k(    4) = (   0.0000000   0.0000000   0.2000000), wk =   0.0011852
        k(    5) = (   0.0000000   0.0000000   0.2666667), wk =   0.0011852
        k(    6) = (   0.0000000   0.0000000   0.3333333), wk =   0.0011852
        k(    7) = (   0.0000000   0.0000000   0.4000000), wk =   0.0011852
        k(    8) = (   0.0000000   0.0000000   0.4666667), wk =   0.0011852
        k(    9) = (   0.0000000   0.0666667   0.0000000), wk =   0.0035556
        k(   10) = (   0.0000000   0.0666667   0.0666667), wk =   0.0071111
        k(   11) = (   0.0000000   0.0666667   0.1333333), wk =   0.0071111
        k(   12) = (   0.0000000   0.0666667   0.2000000), wk =   0.0071111
        k(   13) = (   0.0000000   0.0666667   0.2666667), wk =   0.0071111
        k(   14) = (   0.0000000   0.0666667   0.3333333), wk =   0.0071111
        k(   15) = (   0.0000000   0.0666667   0.4000000), wk =   0.0071111
        k(   16) = (   0.0000000   0.0666667   0.4666667), wk =   0.0071111
        k(   17) = (   0.0000000   0.1333333   0.0000000), wk =   0.0035556
        k(   18) = (   0.0000000   0.1333333   0.0666667), wk =   0.0071111
        k(   19) = (   0.0000000   0.1333333   0.1333333), wk =   0.0071111
        k(   20) = (   0.0000000   0.1333333   0.2000000), wk =   0.0071111
        k(   21) = (   0.0000000   0.1333333   0.2666667), wk =   0.0071111
        k(   22) = (   0.0000000   0.1333333   0.3333333), wk =   0.0071111
        k(   23) = (   0.0000000   0.1333333   0.4000000), wk =   0.0071111
        k(   24) = (   0.0000000   0.1333333   0.4666667), wk =   0.0071111
        k(   25) = (   0.0000000   0.2000000   0.0000000), wk =   0.0035556
        k(   26) = (   0.0000000   0.2000000   0.0666667), wk =   0.0071111
        k(   27) = (   0.0000000   0.2000000   0.1333333), wk =   0.0071111
        k(   28) = (   0.0000000   0.2000000   0.2000000), wk =   0.0071111
        k(   29) = (   0.0000000   0.2000000   0.2666667), wk =   0.0071111
        k(   30) = (   0.0000000   0.2000000   0.3333333), wk =   0.0071111
        k(   31) = (   0.0000000   0.2000000   0.4000000), wk =   0.0071111
        k(   32) = (   0.0000000   0.2000000   0.4666667), wk =   0.0071111
        k(   33) = (   0.0000000   0.2666667   0.0000000), wk =   0.0035556
        k(   34) = (   0.0000000   0.2666667   0.0666667), wk =   0.0071111
        k(   35) = (   0.0000000   0.2666667   0.1333333), wk =   0.0071111
        k(   36) = (   0.0000000   0.2666667   0.2000000), wk =   0.0071111
        k(   37) = (   0.0000000   0.2666667   0.2666667), wk =   0.0071111
        k(   38) = (   0.0000000   0.2666667   0.3333333), wk =   0.0071111
        k(   39) = (   0.0000000   0.2666667   0.4000000), wk =   0.0071111
        k(   40) = (   0.0000000   0.2666667   0.4666667), wk =   0.0071111
        k(   41) = (   0.0000000   0.3333333   0.0000000), wk =   0.0035556
        k(   42) = (   0.0000000   0.3333333   0.0666667), wk =   0.0071111
        k(   43) = (   0.0000000   0.3333333   0.1333333), wk =   0.0071111
        k(   44) = (   0.0000000   0.3333333   0.2000000), wk =   0.0071111
        k(   45) = (   0.0000000   0.3333333   0.2666667), wk =   0.0071111
        k(   46) = (   0.0000000   0.3333333   0.3333333), wk =   0.0071111
        k(   47) = (   0.0000000   0.3333333   0.4000000), wk =   0.0071111
        k(   48) = (   0.0000000   0.3333333   0.4666667), wk =   0.0071111
        k(   49) = (   0.0000000   0.4000000   0.0000000), wk =   0.0035556
        k(   50) = (   0.0000000   0.4000000   0.0666667), wk =   0.0071111
        k(   51) = (   0.0000000   0.4000000   0.1333333), wk =   0.0071111
        k(   52) = (   0.0000000   0.4000000   0.2000000), wk =   0.0071111
        k(   53) = (   0.0000000   0.4000000   0.2666667), wk =   0.0071111
        k(   54) = (   0.0000000   0.4000000   0.3333333), wk =   0.0071111
        k(   55) = (   0.0000000   0.4000000   0.4000000), wk =   0.0071111
        k(   56) = (   0.0000000   0.4000000   0.4666667), wk =   0.0071111
        k(   57) = (   0.0000000   0.4666667   0.0000000), wk =   0.0035556
        k(   58) = (   0.0000000   0.4666667   0.0666667), wk =   0.0071111
        k(   59) = (   0.0000000   0.4666667   0.1333333), wk =   0.0071111
        k(   60) = (   0.0000000   0.4666667   0.2000000), wk =   0.0071111
        k(   61) = (   0.0000000   0.4666667   0.2666667), wk =   0.0071111
        k(   62) = (   0.0000000   0.4666667   0.3333333), wk =   0.0071111
        k(   63) = (   0.0000000   0.4666667   0.4000000), wk =   0.0071111
        k(   64) = (   0.0000000   0.4666667   0.4666667), wk =   0.0071111
        k(   65) = (   0.0666667   0.0666667   0.0000000), wk =   0.0035556
        k(   66) = (   0.0666667   0.0666667   0.0666667), wk =   0.0071111
        k(   67) = (   0.0666667   0.0666667   0.1333333), wk =   0.0071111
        k(   68) = (   0.0666667   0.0666667   0.2000000), wk =   0.0071111
        k(   69) = (   0.0666667   0.0666667   0.2666667), wk =   0.0071111
        k(   70) = (   0.0666667   0.0666667   0.3333333), wk =   0.0071111
        k(   71) = (   0.0666667   0.0666667   0.4000000), wk =   0.0071111
        k(   72) = (   0.0666667   0.0666667   0.4666667), wk =   0.0071111
        k(   73) = (   0.0666667   0.1333333   0.0000000), wk =   0.0071111
        k(   74) = (   0.0666667   0.1333333   0.0666667), wk =   0.0142222
        k(   75) = (   0.0666667   0.1333333   0.1333333), wk =   0.0142222
        k(   76) = (   0.0666667   0.1333333   0.2000000), wk =   0.0142222
        k(   77) = (   0.0666667   0.1333333   0.2666667), wk =   0.0142222
        k(   78) = (   0.0666667   0.1333333   0.3333333), wk =   0.0142222
        k(   79) = (   0.0666667   0.1333333   0.4000000), wk =   0.0142222
        k(   80) = (   0.0666667   0.1333333   0.4666667), wk =   0.0142222
        k(   81) = (   0.0666667   0.2000000   0.0000000), wk =   0.0071111
        k(   82) = (   0.0666667   0.2000000   0.0666667), wk =   0.0142222
        k(   83) = (   0.0666667   0.2000000   0.1333333), wk =   0.0142222
        k(   84) = (   0.0666667   0.2000000   0.2000000), wk =   0.0142222
        k(   85) = (   0.0666667   0.2000000   0.2666667), wk =   0.0142222
        k(   86) = (   0.0666667   0.2000000   0.3333333), wk =   0.0142222
        k(   87) = (   0.0666667   0.2000000   0.4000000), wk =   0.0142222
        k(   88) = (   0.0666667   0.2000000   0.4666667), wk =   0.0142222
        k(   89) = (   0.0666667   0.2666667   0.0000000), wk =   0.0071111
        k(   90) = (   0.0666667   0.2666667   0.0666667), wk =   0.0142222
        k(   91) = (   0.0666667   0.2666667   0.1333333), wk =   0.0142222
        k(   92) = (   0.0666667   0.2666667   0.2000000), wk =   0.0142222
        k(   93) = (   0.0666667   0.2666667   0.2666667), wk =   0.0142222
        k(   94) = (   0.0666667   0.2666667   0.3333333), wk =   0.0142222
        k(   95) = (   0.0666667   0.2666667   0.4000000), wk =   0.0142222
        k(   96) = (   0.0666667   0.2666667   0.4666667), wk =   0.0142222
        k(   97) = (   0.0666667   0.3333333   0.0000000), wk =   0.0071111
        k(   98) = (   0.0666667   0.3333333   0.0666667), wk =   0.0142222
        k(   99) = (   0.0666667   0.3333333   0.1333333), wk =   0.0142222
        k(  100) = (   0.0666667   0.3333333   0.2000000), wk =   0.0142222
        k(  101) = (   0.0666667   0.3333333   0.2666667), wk =   0.0142222
        k(  102) = (   0.0666667   0.3333333   0.3333333), wk =   0.0142222
        k(  103) = (   0.0666667   0.3333333   0.4000000), wk =   0.0142222
        k(  104) = (   0.0666667   0.3333333   0.4666667), wk =   0.0142222
        k(  105) = (   0.0666667   0.4000000   0.0000000), wk =   0.0071111
        k(  106) = (   0.0666667   0.4000000   0.0666667), wk =   0.0142222
        k(  107) = (   0.0666667   0.4000000   0.1333333), wk =   0.0142222
        k(  108) = (   0.0666667   0.4000000   0.2000000), wk =   0.0142222
        k(  109) = (   0.0666667   0.4000000   0.2666667), wk =   0.0142222
        k(  110) = (   0.0666667   0.4000000   0.3333333), wk =   0.0142222
        k(  111) = (   0.0666667   0.4000000   0.4000000), wk =   0.0142222
        k(  112) = (   0.0666667   0.4000000   0.4666667), wk =   0.0142222
        k(  113) = (   0.0666667   0.4666667   0.0000000), wk =   0.0035556
        k(  114) = (   0.0666667   0.4666667   0.0666667), wk =   0.0071111
        k(  115) = (   0.0666667   0.4666667   0.1333333), wk =   0.0071111
        k(  116) = (   0.0666667   0.4666667   0.2000000), wk =   0.0071111
        k(  117) = (   0.0666667   0.4666667   0.2666667), wk =   0.0071111
        k(  118) = (   0.0666667   0.4666667   0.3333333), wk =   0.0071111
        k(  119) = (   0.0666667   0.4666667   0.4000000), wk =   0.0071111
        k(  120) = (   0.0666667   0.4666667   0.4666667), wk =   0.0071111
        k(  121) = (   0.1333333   0.1333333   0.0000000), wk =   0.0035556
        k(  122) = (   0.1333333   0.1333333   0.0666667), wk =   0.0071111
        k(  123) = (   0.1333333   0.1333333   0.1333333), wk =   0.0071111
        k(  124) = (   0.1333333   0.1333333   0.2000000), wk =   0.0071111
        k(  125) = (   0.1333333   0.1333333   0.2666667), wk =   0.0071111
        k(  126) = (   0.1333333   0.1333333   0.3333333), wk =   0.0071111
        k(  127) = (   0.1333333   0.1333333   0.4000000), wk =   0.0071111
        k(  128) = (   0.1333333   0.1333333   0.4666667), wk =   0.0071111
        k(  129) = (   0.1333333   0.2000000   0.0000000), wk =   0.0071111
        k(  130) = (   0.1333333   0.2000000   0.0666667), wk =   0.0142222
        k(  131) = (   0.1333333   0.2000000   0.1333333), wk =   0.0142222
        k(  132) = (   0.1333333   0.2000000   0.2000000), wk =   0.0142222
        k(  133) = (   0.1333333   0.2000000   0.2666667), wk =   0.0142222
        k(  134) = (   0.1333333   0.2000000   0.3333333), wk =   0.0142222
        k(  135) = (   0.1333333   0.2000000   0.4000000), wk =   0.0142222
        k(  136) = (   0.1333333   0.2000000   0.4666667), wk =   0.0142222
        k(  137) = (   0.1333333   0.2666667   0.0000000), wk =   0.0071111
        k(  138) = (   0.1333333   0.2666667   0.0666667), wk =   0.0142222
        k(  139) = (   0.1333333   0.2666667   0.1333333), wk =   0.0142222
        k(  140) = (   0.1333333   0.2666667   0.2000000), wk =   0.0142222
        k(  141) = (   0.1333333   0.2666667   0.2666667), wk =   0.0142222
        k(  142) = (   0.1333333   0.2666667   0.3333333), wk =   0.0142222
        k(  143) = (   0.1333333   0.2666667   0.4000000), wk =   0.0142222
        k(  144) = (   0.1333333   0.2666667   0.4666667), wk =   0.0142222
        k(  145) = (   0.1333333   0.3333333   0.0000000), wk =   0.0071111
        k(  146) = (   0.1333333   0.3333333   0.0666667), wk =   0.0142222
        k(  147) = (   0.1333333   0.3333333   0.1333333), wk =   0.0142222
        k(  148) = (   0.1333333   0.3333333   0.2000000), wk =   0.0142222
        k(  149) = (   0.1333333   0.3333333   0.2666667), wk =   0.0142222
        k(  150) = (   0.1333333   0.3333333   0.3333333), wk =   0.0142222
        k(  151) = (   0.1333333   0.3333333   0.4000000), wk =   0.0142222
        k(  152) = (   0.1333333   0.3333333   0.4666667), wk =   0.0142222
        k(  153) = (   0.1333333   0.4000000   0.0000000), wk =   0.0071111
        k(  154) = (   0.1333333   0.4000000   0.0666667), wk =   0.0142222
        k(  155) = (   0.1333333   0.4000000   0.1333333), wk =   0.0142222
        k(  156) = (   0.1333333   0.4000000   0.2000000), wk =   0.0142222
        k(  157) = (   0.1333333   0.4000000   0.2666667), wk =   0.0142222
        k(  158) = (   0.1333333   0.4000000   0.3333333), wk =   0.0142222
        k(  159) = (   0.1333333   0.4000000   0.4000000), wk =   0.0142222
        k(  160) = (   0.1333333   0.4000000   0.4666667), wk =   0.0142222
        k(  161) = (   0.2000000   0.2000000   0.0000000), wk =   0.0035556
        k(  162) = (   0.2000000   0.2000000   0.0666667), wk =   0.0071111
        k(  163) = (   0.2000000   0.2000000   0.1333333), wk =   0.0071111
        k(  164) = (   0.2000000   0.2000000   0.2000000), wk =   0.0071111
        k(  165) = (   0.2000000   0.2000000   0.2666667), wk =   0.0071111
        k(  166) = (   0.2000000   0.2000000   0.3333333), wk =   0.0071111
        k(  167) = (   0.2000000   0.2000000   0.4000000), wk =   0.0071111
        k(  168) = (   0.2000000   0.2000000   0.4666667), wk =   0.0071111
        k(  169) = (   0.2000000   0.2666667   0.0000000), wk =   0.0071111
        k(  170) = (   0.2000000   0.2666667   0.0666667), wk =   0.0142222
        k(  171) = (   0.2000000   0.2666667   0.1333333), wk =   0.0142222
        k(  172) = (   0.2000000   0.2666667   0.2000000), wk =   0.0142222
        k(  173) = (   0.2000000   0.2666667   0.2666667), wk =   0.0142222
        k(  174) = (   0.2000000   0.2666667   0.3333333), wk =   0.0142222
        k(  175) = (   0.2000000   0.2666667   0.4000000), wk =   0.0142222
        k(  176) = (   0.2000000   0.2666667   0.4666667), wk =   0.0142222
        k(  177) = (   0.2000000   0.3333333   0.0000000), wk =   0.0071111
        k(  178) = (   0.2000000   0.3333333   0.0666667), wk =   0.0142222
        k(  179) = (   0.2000000   0.3333333   0.1333333), wk =   0.0142222
        k(  180) = (   0.2000000   0.3333333   0.2000000), wk =   0.0142222
        k(  181) = (   0.2000000   0.3333333   0.2666667), wk =   0.0142222
        k(  182) = (   0.2000000   0.3333333   0.3333333), wk =   0.0142222
        k(  183) = (   0.2000000   0.3333333   0.4000000), wk =   0.0142222
        k(  184) = (   0.2000000   0.3333333   0.4666667), wk =   0.0142222
        k(  185) = (   0.2000000   0.4000000   0.0000000), wk =   0.0035556
        k(  186) = (   0.2000000   0.4000000   0.0666667), wk =   0.0071111
        k(  187) = (   0.2000000   0.4000000   0.1333333), wk =   0.0071111
        k(  188) = (   0.2000000   0.4000000   0.2000000), wk =   0.0071111
        k(  189) = (   0.2000000   0.4000000   0.2666667), wk =   0.0071111
        k(  190) = (   0.2000000   0.4000000   0.3333333), wk =   0.0071111
        k(  191) = (   0.2000000   0.4000000   0.4000000), wk =   0.0071111
        k(  192) = (   0.2000000   0.4000000   0.4666667), wk =   0.0071111
        k(  193) = (   0.2666667   0.2666667   0.0000000), wk =   0.0035556
        k(  194) = (   0.2666667   0.2666667   0.0666667), wk =   0.0071111
        k(  195) = (   0.2666667   0.2666667   0.1333333), wk =   0.0071111
        k(  196) = (   0.2666667   0.2666667   0.2000000), wk =   0.0071111
        k(  197) = (   0.2666667   0.2666667   0.2666667), wk =   0.0071111
        k(  198) = (   0.2666667   0.2666667   0.3333333), wk =   0.0071111
        k(  199) = (   0.2666667   0.2666667   0.4000000), wk =   0.0071111
        k(  200) = (   0.2666667   0.2666667   0.4666667), wk =   0.0071111
        k(  201) = (   0.2666667   0.3333333   0.0000000), wk =   0.0071111
        k(  202) = (   0.2666667   0.3333333   0.0666667), wk =   0.0142222
        k(  203) = (   0.2666667   0.3333333   0.1333333), wk =   0.0142222
        k(  204) = (   0.2666667   0.3333333   0.2000000), wk =   0.0142222
        k(  205) = (   0.2666667   0.3333333   0.2666667), wk =   0.0142222
        k(  206) = (   0.2666667   0.3333333   0.3333333), wk =   0.0142222
        k(  207) = (   0.2666667   0.3333333   0.4000000), wk =   0.0142222
        k(  208) = (   0.2666667   0.3333333   0.4666667), wk =   0.0142222
        k(  209) = (   0.3333333   0.3333333   0.0000000), wk =   0.0011852
        k(  210) = (   0.3333333   0.3333333   0.0666667), wk =   0.0023704
        k(  211) = (   0.3333333   0.3333333   0.1333333), wk =   0.0023704
        k(  212) = (   0.3333333   0.3333333   0.2000000), wk =   0.0023704
        k(  213) = (   0.3333333   0.3333333   0.2666667), wk =   0.0023704
        k(  214) = (   0.3333333   0.3333333   0.3333333), wk =   0.0023704
        k(  215) = (   0.3333333   0.3333333   0.4000000), wk =   0.0023704
        k(  216) = (   0.3333333   0.3333333   0.4666667), wk =   0.0023704

     Dense  grid:   117881 G-vectors     FFT dimensions: (  60,  60,  90)

     Dynamical RAM for                 wfc:       0.67 MB

     Dynamical RAM for     wfc (w. buffer):     146.44 MB

     Dynamical RAM for           str. fact:       0.60 MB

     Dynamical RAM for           local pot:       0.00 MB

     Dynamical RAM for          nlocal pot:       1.95 MB

     Dynamical RAM for                qrad:       4.54 MB

     Dynamical RAM for          rho,v,vnew:       2.14 MB

     Dynamical RAM for               rhoin:       0.71 MB

     Dynamical RAM for            rho*nmix:       4.80 MB

     Dynamical RAM for           G-vectors:       1.27 MB

     Dynamical RAM for          h,s,v(r/c):       0.01 MB

     Dynamical RAM for          <psi|beta>:       0.01 MB

     Dynamical RAM for                 psi:       1.35 MB

     Dynamical RAM for                hpsi:       1.35 MB

     Dynamical RAM for      wfcinit/wfcrot:       1.97 MB

     Estimated static dynamical RAM per process >     160.61 MB

     Estimated max dynamical RAM per process >     168.13 MB

     Estimated total dynamical RAM >    1008.79 MB

     Initial potential from superposition of free atoms

     starting charge   35.99464, renormalised to   36.00000
     Starting wfcs are   26 randomized atomic wfcs

     total cpu time spent up to now is        5.8 secs

     Self-consistent Calculation

     iteration #  1     ecut=   200.00 Ry     beta= 0.70
     Davidson diagonalization with overlap

---- Real-time Memory Report at c_bands before calling an iterative solver
           260 MiB given to the printing process from OS
             0 MiB allocation reported by mallinfo(arena+hblkhd)
        192943 MiB available memory on the node where the printing process lives
------------------
     ethr =  1.00E-02,  avg # of iterations =  2.0

     total cpu time spent up to now is       15.8 secs

     total energy              =    -347.03526216 Ry
     estimated scf accuracy    <       1.04414813 Ry

     iteration #  2     ecut=   200.00 Ry     beta= 0.70
     Davidson diagonalization with overlap

---- Real-time Memory Report at c_bands before calling an iterative solver
           265 MiB given to the printing process from OS
             0 MiB allocation reported by mallinfo(arena+hblkhd)
        192849 MiB available memory on the node where the printing process lives
------------------
     ethr =  2.90E-03,  avg # of iterations =  3.0

     total cpu time spent up to now is       26.9 secs

     total energy              =    -347.38178842 Ry
     estimated scf accuracy    <       0.87677283 Ry

     iteration #  3     ecut=   200.00 Ry     beta= 0.70
     Davidson diagonalization with overlap

---- Real-time Memory Report at c_bands before calling an iterative solver
           269 MiB given to the printing process from OS
             0 MiB allocation reported by mallinfo(arena+hblkhd)
        192813 MiB available memory on the node where the printing process lives
------------------
     ethr =  2.44E-03,  avg # of iterations =  2.0

     negative rho (up, down):  3.530E-07 0.000E+00

     total cpu time spent up to now is       37.4 secs

     total energy              =    -347.48857906 Ry
     estimated scf accuracy    <       0.02844502 Ry

     iteration #  4     ecut=   200.00 Ry     beta= 0.70
     Davidson diagonalization with overlap

---- Real-time Memory Report at c_bands before calling an iterative solver
           270 MiB given to the printing process from OS
             0 MiB allocation reported by mallinfo(arena+hblkhd)
        192787 MiB available memory on the node where the printing process lives
------------------
     ethr =  7.90E-05,  avg # of iterations =  5.1

     negative rho (up, down):  4.475E-08 0.000E+00

     total cpu time spent up to now is       52.3 secs

     total energy              =    -347.51654131 Ry
     estimated scf accuracy    <       0.09109603 Ry

     iteration #  5     ecut=   200.00 Ry     beta= 0.70
     Davidson diagonalization with overlap

---- Real-time Memory Report at c_bands before calling an iterative solver
           275 MiB given to the printing process from OS
             0 MiB allocation reported by mallinfo(arena+hblkhd)
        192767 MiB available memory on the node where the printing process lives
------------------
     ethr =  7.90E-05,  avg # of iterations =  2.5

     negative rho (up, down):  4.368E-08 0.000E+00

     total cpu time spent up to now is       62.1 secs

     total energy              =    -347.52220107 Ry
     estimated scf accuracy    <       0.01844021 Ry

     iteration #  6     ecut=   200.00 Ry     beta= 0.70
     Davidson diagonalization with overlap

---- Real-time Memory Report at c_bands before calling an iterative solver
           276 MiB given to the printing process from OS
             0 MiB allocation reported by mallinfo(arena+hblkhd)
        193414 MiB available memory on the node where the printing process lives
------------------
     ethr =  5.12E-05,  avg # of iterations =  1.0

     negative rho (up, down):  1.738E-08 0.000E+00

     total cpu time spent up to now is       69.8 secs

     total energy              =    -347.52183904 Ry
     estimated scf accuracy    <       0.01555998 Ry

     iteration #  7     ecut=   200.00 Ry     beta= 0.70
     Davidson diagonalization with overlap

---- Real-time Memory Report at c_bands before calling an iterative solver
           276 MiB given to the printing process from OS
             0 MiB allocation reported by mallinfo(arena+hblkhd)
        193416 MiB available memory on the node where the printing process lives
------------------
     ethr =  4.32E-05,  avg # of iterations =  1.0

     total cpu time spent up to now is       77.5 secs

     total energy              =    -347.52111969 Ry
     estimated scf accuracy    <       0.01345808 Ry

     iteration #  8     ecut=   200.00 Ry     beta= 0.70
     Davidson diagonalization with overlap

---- Real-time Memory Report at c_bands before calling an iterative solver
           276 MiB given to the printing process from OS
             0 MiB allocation reported by mallinfo(arena+hblkhd)
        193414 MiB available memory on the node where the printing process lives
------------------
     ethr =  3.74E-05,  avg # of iterations =  1.0

     total cpu time spent up to now is       85.2 secs

     total energy              =    -347.51752141 Ry
     estimated scf accuracy    <       0.01041861 Ry

     iteration #  9     ecut=   200.00 Ry     beta= 0.70
     Davidson diagonalization with overlap

---- Real-time Memory Report at c_bands before calling an iterative solver
           276 MiB given to the printing process from OS
             0 MiB allocation reported by mallinfo(arena+hblkhd)
        193408 MiB available memory on the node where the printing process lives
------------------
     ethr =  2.89E-05,  avg # of iterations =  2.0

     total cpu time spent up to now is       94.3 secs

     total energy              =    -347.51892015 Ry
     estimated scf accuracy    <       0.00100817 Ry

     iteration # 10     ecut=   200.00 Ry     beta= 0.70
     Davidson diagonalization with overlap

---- Real-time Memory Report at c_bands before calling an iterative solver
           277 MiB given to the printing process from OS
             0 MiB allocation reported by mallinfo(arena+hblkhd)
        193403 MiB available memory on the node where the printing process lives
------------------
     ethr =  2.80E-06,  avg # of iterations =  2.9

     total cpu time spent up to now is      103.1 secs

     total energy              =    -347.51891069 Ry
     estimated scf accuracy    <       0.00093133 Ry

     iteration # 11     ecut=   200.00 Ry     beta= 0.70
     Davidson diagonalization with overlap

---- Real-time Memory Report at c_bands before calling an iterative solver
           277 MiB given to the printing process from OS
             0 MiB allocation reported by mallinfo(arena+hblkhd)
        193397 MiB available memory on the node where the printing process lives
------------------
     ethr =  2.59E-06,  avg # of iterations =  1.1

     total cpu time spent up to now is      110.9 secs

     total energy              =    -347.51876814 Ry
     estimated scf accuracy    <       0.00071157 Ry

     iteration # 12     ecut=   200.00 Ry     beta= 0.70
     Davidson diagonalization with overlap

---- Real-time Memory Report at c_bands before calling an iterative solver
           277 MiB given to the printing process from OS
             0 MiB allocation reported by mallinfo(arena+hblkhd)
        193399 MiB available memory on the node where the printing process lives
------------------
     ethr =  1.98E-06,  avg # of iterations =  2.0

     total cpu time spent up to now is      119.5 secs

     total energy              =    -347.51884133 Ry
     estimated scf accuracy    <       0.00026261 Ry

     iteration # 13     ecut=   200.00 Ry     beta= 0.70
     Davidson diagonalization with overlap

---- Real-time Memory Report at c_bands before calling an iterative solver
           277 MiB given to the printing process from OS
             0 MiB allocation reported by mallinfo(arena+hblkhd)
        193399 MiB available memory on the node where the printing process lives
------------------
     ethr =  7.29E-07,  avg # of iterations =  1.0

     total cpu time spent up to now is      127.2 secs

     total energy              =    -347.51877707 Ry
     estimated scf accuracy    <       0.00031400 Ry

     iteration # 14     ecut=   200.00 Ry     beta= 0.70
     Davidson diagonalization with overlap

---- Real-time Memory Report at c_bands before calling an iterative solver
           277 MiB given to the printing process from OS
             0 MiB allocation reported by mallinfo(arena+hblkhd)
        193397 MiB available memory on the node where the printing process lives
------------------
     ethr =  7.29E-07,  avg # of iterations =  1.9

     total cpu time spent up to now is      135.5 secs

     total energy              =    -347.51871255 Ry
     estimated scf accuracy    <       0.00013280 Ry

     iteration # 15     ecut=   200.00 Ry     beta= 0.70
     Davidson diagonalization with overlap

---- Real-time Memory Report at c_bands before calling an iterative solver
           277 MiB given to the printing process from OS
             0 MiB allocation reported by mallinfo(arena+hblkhd)
        193397 MiB available memory on the node where the printing process lives
------------------
     ethr =  3.69E-07,  avg # of iterations =  3.4

     total cpu time spent up to now is      145.8 secs

     total energy              =    -347.51875761 Ry
     estimated scf accuracy    <       0.00000719 Ry

     iteration # 16     ecut=   200.00 Ry     beta= 0.70
     Davidson diagonalization with overlap

---- Real-time Memory Report at c_bands before calling an iterative solver
           278 MiB given to the printing process from OS
             0 MiB allocation reported by mallinfo(arena+hblkhd)
        193388 MiB available memory on the node where the printing process lives
------------------
     ethr =  2.00E-08,  avg # of iterations =  2.2

     total cpu time spent up to now is      154.7 secs

     total energy              =    -347.51875772 Ry
     estimated scf accuracy    <       0.00000750 Ry

     iteration # 17     ecut=   200.00 Ry     beta= 0.70
     Davidson diagonalization with overlap

---- Real-time Memory Report at c_bands before calling an iterative solver
           278 MiB given to the printing process from OS
             0 MiB allocation reported by mallinfo(arena+hblkhd)
        193389 MiB available memory on the node where the printing process lives
------------------
     ethr =  2.00E-08,  avg # of iterations =  1.0

     total cpu time spent up to now is      162.5 secs

     total energy              =    -347.51875587 Ry
     estimated scf accuracy    <       0.00000607 Ry

     iteration # 18     ecut=   200.00 Ry     beta= 0.70
     Davidson diagonalization with overlap

---- Real-time Memory Report at c_bands before calling an iterative solver
           278 MiB given to the printing process from OS
             0 MiB allocation reported by mallinfo(arena+hblkhd)
        193386 MiB available memory on the node where the printing process lives
------------------
     ethr =  1.69E-08,  avg # of iterations =  2.0

     total cpu time spent up to now is      171.4 secs

     total energy              =    -347.51875576 Ry
     estimated scf accuracy    <       0.00000140 Ry

     iteration # 19     ecut=   200.00 Ry     beta= 0.70
     Davidson diagonalization with overlap

---- Real-time Memory Report at c_bands before calling an iterative solver
           279 MiB given to the printing process from OS
             0 MiB allocation reported by mallinfo(arena+hblkhd)
        193387 MiB available memory on the node where the printing process lives
------------------
     ethr =  3.89E-09,  avg # of iterations =  3.2

     total cpu time spent up to now is      181.3 secs

     End of self-consistent calculation

          k = 0.0000 0.0000 0.0000 ( 14739 PWs)   bands (ev):

    -5.3219  -4.4642  -2.9434  -2.9335  -2.9335  -2.8754  -2.8754  -2.6916
    -2.6916  -2.5940  -2.5940  -1.2927   3.5975   9.5877   9.5877  10.5854
    10.6177  10.6177

     occupation numbers 
     1.0000   1.0000   1.0000   1.0000   1.0000   1.0000   1.0000   1.0000
     1.0000   1.0000   1.0000   1.0000   1.0000   1.0000   1.0000   1.0000
     1.0000   1.0000

          k = 0.0000 0.0000 0.0410 ( 14721 PWs)   bands (ev):

    -5.3089  -4.4682  -2.9399  -2.9333  -2.9333  -2.8764  -2.8764  -2.6901
    -2.6901  -2.5946  -2.5946  -1.3425   3.6825   9.5984   9.5984  10.4225
    10.6059  10.6059

     occupation numbers 
     1.0000   1.0000   1.0000   1.0000   1.0000   1.0000   1.0000   1.0000
     1.0000   1.0000   1.0000   1.0000   1.0000   1.0000   1.0000   1.0000
     1.0000   1.0000

          k = 0.0000 0.0000 0.0820 ( 14744 PWs)   bands (ev):

    -5.2707  -4.4807  -2.9327  -2.9327  -2.9285  -2.8794  -2.8794  -2.6857
    -2.6857  -2.5967  -2.5967  -1.4799   3.9251   9.6301   9.6301  10.0259
    10.5711  10.5711

     occupation numbers 
     1.0000   1.0000   1.0000   1.0000   1.0000   1.0000   1.0000   1.0000
     1.0000   1.0000   1.0000   1.0000   1.0000   1.0000   1.0000   1.0000
     1.0000   1.0000

          k = 0.0000 0.0000 0.1229 ( 14768 PWs)   bands (ev):

    -5.2093  -4.5032  -2.9315  -2.9315  -2.9073  -2.8842  -2.8842  -2.6789
    -2.6789  -2.6003  -2.6003  -1.6759   4.2962   9.5155   9.6816   9.6816
    10.5149  10.5149

     occupation numbers 
     1.0000   1.0000   1.0000   1.0000   1.0000   1.0000   1.0000   1.0000
     1.0000   1.0000   1.0000   1.0000   1.0000   1.0000   1.0000   1.0000
     1.0000   1.0000

          k = 0.0000 0.0000 0.1639 ( 14768 PWs)   bands (ev):

    -5.1285  -4.5379  -2.9296  -2.9296  -2.8902  -2.8902  -2.8729  -2.6702
    -2.6702  -2.6053  -2.6053  -1.8986   4.7630   8.9483   9.7510   9.7510
    10.4403  10.4403

     occupation numbers 
     1.0000   1.0000   1.0000   1.0000   1.0000   1.0000   1.0000   1.0000
     1.0000   1.0000   1.0000   1.0000   1.0000   1.0000   1.0000   1.0000
     1.0000   1.0000

          k = 0.0000 0.0000 0.2049 ( 14768 PWs)   bands (ev):

    -5.0335  -4.5871  -2.9266  -2.9266  -2.8971  -2.8971  -2.8205  -2.6601
    -2.6601  -2.6118  -2.6118  -2.1215   5.2974   8.3491   9.8356   9.8356
    10.3506  10.3506

     occupation numbers 
     1.0000   1.0000   1.0000   1.0000   1.0000   1.0000   1.0000   1.0000
     1.0000   1.0000   1.0000   1.0000   1.0000   1.0000   1.0000   1.0000
     1.0000   1.0000

          k = 0.0000 0.0000 0.2459 ( 14798 PWs)   bands (ev):

    -4.9311  -4.6526  -2.9224  -2.9224  -2.9041  -2.9041  -2.7445  -2.6495
    -2.6495  -2.6197  -2.6197  -2.3256   5.8771   7.7319   9.9319   9.9319
    10.2503  10.2503

     occupation numbers 
     1.0000   1.0000   1.0000   1.0000   1.0000   1.0000   1.0000   1.0000
     1.0000   1.0000   1.0000   1.0000   1.0000   1.0000   1.0000   1.0000
     1.0000   1.0000

          k = 0.0000 0.0000 0.2868 ( 14780 PWs)   bands (ev):

    -4.8288  -4.7341  -2.9172  -2.9172  -2.9110  -2.9110  -2.6390  -2.6389
    -2.6389  -2.6288  -2.6288  -2.4996   6.4849   7.1070  10.0362  10.0362
    10.1438  10.1438

     occupation numbers 
     1.0000   1.0000   1.0000   1.0000   1.0000   1.0000   1.0000   1.0000
     1.0000   1.0000   1.0000   1.0000   1.0000   1.0000   1.0000   1.0000
     1.0000   1.0000

          k = 0.0000 0.0770 0.0000 ( 14715 PWs)   bands (ev):

    -5.2788  -4.4536  -2.9405  -2.9270  -2.9174  -2.8706  -2.8667  -2.6952
    -2.6922  -2.6014  -2.5930  -1.2612   3.6610   9.2491   9.4933  10.1850
    10.5433  10.5783

     occupation numbers 
     1.0000   1.0000   1.0000   1.0000   1.0000   1.0000   1.0000   1.0000
     1.0000   1.0000   1.0000   1.0000   1.0000   1.0000   1.0000   1.0000
     1.0000   1.0000

          k = 0.0000 0.0770 0.0410 ( 14717 PWs)   bands (ev):

    -5.2661  -4.4573  -2.9387  -2.9268  -2.9155  -2.8716  -2.8678  -2.6934
    -2.6908  -2.6022  -2.5937  -1.3103   3.7444   9.2610   9.5045  10.0792
    10.5133  10.5657

     occupation numbers 
     1.0000   1.0000   1.0000   1.0000   1.0000   1.0000   1.0000   1.0000
     1.0000   1.0000   1.0000   1.0000   1.0000   1.0000   1.0000   1.0000
     1.0000   1.0000

          k = 0.0000 0.0770 0.0820 ( 14739 PWs)   bands (ev):

    -5.2286  -4.4690  -2.9343  -2.9261  -2.9082  -2.8745  -2.8709  -2.6882
    -2.6864  -2.6048  -2.5959  -1.4459   3.9825   9.2957   9.5375   9.7800
    10.4505  10.5286

     occupation numbers 
     1.0000   1.0000   1.0000   1.0000   1.0000   1.0000   1.0000   1.0000
     1.0000   1.0000   1.0000   1.0000   1.0000   1.0000   1.0000   1.0000
     1.0000   1.0000

          k = 0.0000 0.0770 0.1229 ( 14777 PWs)   bands (ev):

    -5.1687  -4.4901  -2.9300  -2.9247  -2.8912  -2.8787  -2.8757  -2.6799
    -2.6796  -2.6092  -2.5996  -1.6398   4.3468   9.3053   9.3959   9.5912
    10.3703  10.4688

     occupation numbers 
     1.0000   1.0000   1.0000   1.0000   1.0000   1.0000   1.0000   1.0000
     1.0000   1.0000   1.0000   1.0000   1.0000   1.0000   1.0000   1.0000
     1.0000   1.0000

          k = 0.0000 0.0770 0.1639 ( 14799 PWs)   bands (ev):

    -5.0899  -4.5227  -2.9264  -2.9225  -2.8859  -2.8818  -2.8584  -2.6708
    -2.6685  -2.6155  -2.6048  -1.8605   4.8049   8.8276   9.4426   9.6637
    10.2726  10.3894

     occupation numbers 
     1.0000   1.0000   1.0000   1.0000   1.0000   1.0000   1.0000   1.0000
     1.0000   1.0000   1.0000   1.0000   1.0000   1.0000   1.0000   1.0000
     1.0000   1.0000

          k = 0.0000 0.0770 0.2049 ( 14807 PWs)   bands (ev):

    -4.9975  -4.5692  -2.9226  -2.9193  -2.8925  -2.8887  -2.8103  -2.6607
    -2.6535  -2.6238  -2.6116  -2.0815   5.3285   8.2720   9.5395   9.7521
    10.1594  10.2943

     occupation numbers 
     1.0000   1.0000   1.0000   1.0000   1.0000   1.0000   1.0000   1.0000
     1.0000   1.0000   1.0000   1.0000   1.0000   1.0000   1.0000   1.0000
     1.0000   1.0000

          k = 0.0000 0.0770 0.2459 ( 14791 PWs)   bands (ev):

    -4.8984  -4.6314  -2.9181  -2.9149  -2.8995  -2.8959  -2.7456  -2.6500
    -2.6377  -2.6272  -2.6197  -2.2832   5.8949   7.6875   9.6524   9.8531
    10.0352  10.1881

     occupation numbers 
     1.0000   1.0000   1.0000   1.0000   1.0000   1.0000   1.0000   1.0000
     1.0000   1.0000   1.0000   1.0000   1.0000   1.0000   1.0000   1.0000
     1.0000   1.0000

          k = 0.0000 0.0770 0.2868 ( 14796 PWs)   bands (ev):

    -4.7999  -4.7091  -2.9126  -2.9094  -2.9063  -2.9030  -2.6842  -2.6528
    -2.6393  -2.6290  -2.5718  -2.4517   6.4864   7.0882   9.7761   9.9055
     9.9625  10.0758

     occupation numbers 
     1.0000   1.0000   1.0000   1.0000   1.0000   1.0000   1.0000   1.0000
     1.0000   1.0000   1.0000   1.0000   1.0000   1.0000   1.0000   1.0000
     1.0000   1.0000

          k = 0.0000 0.1540 0.0000 ( 14763 PWs)   bands (ev):

    -5.1574  -4.4259  -2.9247  -2.9099  -2.8758  -2.8506  -2.8423  -2.7053
    -2.6924  -2.6195  -2.5904  -1.1707   3.8471   8.4163   9.2432   9.3537
    10.4076  10.4612

     occupation numbers 
     1.0000   1.0000   1.0000   1.0000   1.0000   1.0000   1.0000   1.0000
     1.0000   1.0000   1.0000   1.0000   1.0000   1.0000   1.0000   1.0000
     1.0000   1.0000

          k = 0.0000 0.1540 0.0410 ( 14749 PWs)   bands (ev):

    -5.1455  -4.4289  -2.9240  -2.9095  -2.8743  -2.8506  -2.8434  -2.7026
    -2.6909  -2.6205  -2.5913  -1.2177   3.9252   8.4310   9.2554   9.2901
    10.3766  10.4466

     occupation numbers 
     1.0000   1.0000   1.0000   1.0000   1.0000   1.0000   1.0000   1.0000
     1.0000   1.0000   1.0000   1.0000   1.0000   1.0000   1.0000   1.0000
     1.0000   1.0000

          k = 0.0000 0.1540 0.0820 ( 14761 PWs)   bands (ev):

    -5.1107  -4.4384  -2.9218  -2.9084  -2.8710  -2.8487  -2.8465  -2.6946
    -2.6867  -2.6236  -2.5938  -1.3479   4.1485   8.4724   9.1092   9.2917
    10.2880  10.4037

     occupation numbers 
     1.0000   1.0000   1.0000   1.0000   1.0000   1.0000   1.0000   1.0000
     1.0000   1.0000   1.0000   1.0000   1.0000   1.0000   1.0000   1.0000
     1.0000   1.0000

          k = 0.0000 0.1540 0.1229 ( 14769 PWs)   bands (ev):

    -5.0551  -4.4557  -2.9186  -2.9064  -2.8702  -2.8515  -2.8385  -2.6814
    -2.6801  -2.6283  -2.5979  -1.5354   4.4899   8.5203   8.8499   9.3507
    10.1526  10.3349

     occupation numbers 
     1.0000   1.0000   1.0000   1.0000   1.0000   1.0000   1.0000   1.0000
     1.0000   1.0000   1.0000   1.0000   1.0000   1.0000   1.0000   1.0000
     1.0000   1.0000

          k = 0.0000 0.1540 0.1639 ( 14780 PWs)   bands (ev):

    -4.9825  -4.4827  -2.9146  -2.9034  -2.8737  -2.8578  -2.8159  -2.6714
    -2.6644  -2.6317  -2.6036  -1.7508   4.9178   8.3703   8.7373   9.4305
     9.9821  10.2440

     occupation numbers 
     1.0000   1.0000   1.0000   1.0000   1.0000   1.0000   1.0000   1.0000
     1.0000   1.0000   1.0000   1.0000   1.0000   1.0000   1.0000   1.0000
     1.0000   1.0000

          k = 0.0000 0.1540 0.2049 ( 14788 PWs)   bands (ev):

    -4.8983  -4.5217  -2.9101  -2.8993  -2.8794  -2.8651  -2.7829  -2.6615
    -2.6587  -2.6145  -2.6109  -1.9684   5.4035   7.9669   8.8442   9.5282
     9.7885  10.1356

     occupation numbers 
     1.0000   1.0000   1.0000   1.0000   1.0000   1.0000   1.0000   1.0000
     1.0000   1.0000   1.0000   1.0000   1.0000   1.0000   1.0000   1.0000
     1.0000   1.0000

          k = 0.0000 0.1540 0.2459 ( 14781 PWs)   bands (ev):

    -4.8089  -4.5746  -2.9049  -2.8940  -2.8860  -2.8729  -2.7457  -2.6699
    -2.6507  -2.6195  -2.5616  -2.1689   5.9229   7.4941   8.9994   9.5832
     9.6401  10.0153

     occupation numbers 
     1.0000   1.0000   1.0000   1.0000   1.0000   1.0000   1.0000   1.0000
     1.0000   1.0000   1.0000   1.0000   1.0000   1.0000   1.0000   1.0000
     1.0000   1.0000

          k = 0.0000 0.1540 0.2868 ( 14799 PWs)   bands (ev):

    -4.7213  -4.6417  -2.8990  -2.8927  -2.8877  -2.8805  -2.7129  -2.6880
    -2.6398  -2.6293  -2.4711  -2.3392   6.4558   6.9848   9.1799   9.3772
     9.7620   9.8889

     occupation numbers 
     1.0000   1.0000   1.0000   1.0000   1.0000   1.0000   1.0000   1.0000
     1.0000   1.0000   1.0000   1.0000   1.0000   1.0000   1.0000   1.0000
     1.0000   1.0000

          k = 0.0000 0.2309 0.0000 ( 14753 PWs)   bands (ev):

    -4.9826  -4.3908  -2.9041  -2.8887  -2.8363  -2.8062  -2.7694  -2.7190
    -2.6873  -2.6339  -2.5870  -1.0331   4.1392   7.3940   8.4405   8.9086
    10.1699  10.2812

     occupation numbers 
     1.0000   1.0000   1.0000   1.0000   1.0000   1.0000   1.0000   1.0000
     1.0000   1.0000   1.0000   1.0000   1.0000   1.0000   1.0000   1.0000
     1.0000   1.0000

          k = 0.0000 0.2309 0.0410 ( 14763 PWs)   bands (ev):

    -4.9722  -4.3928  -2.9040  -2.8880  -2.8380  -2.8073  -2.7688  -2.7138
    -2.6860  -2.6335  -2.5880  -1.0764   4.2064   7.4146   8.3917   8.9221
    10.1527  10.2643

     occupation numbers 
     1.0000   1.0000   1.0000   1.0000   1.0000   1.0000   1.0000   1.0000
     1.0000   1.0000   1.0000   1.0000   1.0000   1.0000   1.0000   1.0000
     1.0000   1.0000

          k = 0.0000 0.2309 0.0820 ( 14761 PWs)   bands (ev):

    -4.9418  -4.3994  -2.9034  -2.8861  -2.8423  -2.8106  -2.7668  -2.7003
    -2.6823  -2.6305  -2.5908  -1.1971   4.3980   7.4736   8.2570   8.9620
    10.0925  10.2145

     occupation numbers 
     1.0000   1.0000   1.0000   1.0000   1.0000   1.0000   1.0000   1.0000
     1.0000   1.0000   1.0000   1.0000   1.0000   1.0000   1.0000   1.0000
     1.0000   1.0000

          k = 0.0000 0.2309 0.1229 ( 14766 PWs)   bands (ev):

    -4.8937  -4.4116  -2.9018  -2.8828  -2.8480  -2.8158  -2.7630  -2.6866
    -2.6764  -2.6171  -2.5954  -1.3734   4.6890   7.5545   8.0740   9.0271
     9.9729  10.1349

     occupation numbers 
     1.0000   1.0000   1.0000   1.0000   1.0000   1.0000   1.0000   1.0000
     1.0000   1.0000   1.0000   1.0000   1.0000   1.0000   1.0000   1.0000
     1.0000   1.0000

          k = 0.0000 0.2309 0.1639 ( 14769 PWs)   bands (ev):

    -4.8316  -4.4312  -2.8988  -2.8781  -2.8542  -2.8227  -2.7569  -2.6829
    -2.6686  -2.6017  -2.5813  -1.5793   5.0487   7.5557   7.9646   9.1153
     9.7844  10.0303

     occupation numbers 
     1.0000   1.0000   1.0000   1.0000   1.0000   1.0000   1.0000   1.0000
     1.0000   1.0000   1.0000   1.0000   1.0000   1.0000   1.0000   1.0000
     1.0000   1.0000

          k = 0.0000 0.2309 0.2049 ( 14779 PWs)   bands (ev):

    -4.7605  -4.4601  -2.8942  -2.8722  -2.8607  -2.8307  -2.7481  -2.6882
    -2.6594  -2.6094  -2.5204  -1.7915   5.4473   7.3370   8.0835   9.2235
     9.5325   9.9063

     occupation numbers 
     1.0000   1.0000   1.0000   1.0000   1.0000   1.0000   1.0000   1.0000
     1.0000   1.0000   1.0000   1.0000   1.0000   1.0000   1.0000   1.0000
     1.0000   1.0000

          k = 0.0000 0.2309 0.2459 ( 14771 PWs)   bands (ev):

    -4.6865  -4.5002  -2.8883  -2.8676  -2.8651  -2.8394  -2.7368  -2.6982
    -2.6493  -2.6184  -2.4334  -1.9923   5.8600   7.0176   8.3168   9.2349
     9.3481   9.7696

     occupation numbers 
     1.0000   1.0000   1.0000   1.0000   1.0000   1.0000   1.0000   1.0000
     1.0000   1.0000   1.0000   1.0000   1.0000   1.0000   1.0000   1.0000
     1.0000   1.0000

          k = 0.0000 0.2309 0.2868 ( 14757 PWs)   bands (ev):

    -4.6154  -4.5523  -2.8816  -2.8746  -2.8570  -2.8483  -2.7238  -2.7105
    -2.6388  -2.6284  -2.3172  -2.1697   6.2674   6.6564   8.6025   8.9163
     9.4843   9.6268

     occupation numbers 
     1.0000   1.0000   1.0000   1.0000   1.0000   1.0000   1.0000   1.0000
     1.0000   1.0000   1.0000   1.0000   1.0000   1.0000   1.0000   1.0000
     1.0000   1.0000

          k = 0.0000 0.3079 0.0000 ( 14752 PWs)   bands (ev):

    -4.7944  -4.3586  -2.8880  -2.8717  -2.8041  -2.7651  -2.7291  -2.6924
    -2.6722  -2.5831  -2.5385  -0.8727   4.4883   6.4127   7.5366   8.5598
     9.8209  10.0720

     occupation numbers 
     1.0000   1.0000   1.0000   1.0000   1.0000   1.0000   1.0000   1.0000
     1.0000   1.0000   1.0000   1.0000   1.0000   1.0000   1.0000   1.0000
     1.0000   1.0000

          k = 0.0000 0.3079 0.0410 ( 14751 PWs)   bands (ev):

    -4.7860  -4.3597  -2.8884  -2.8706  -2.8070  -2.7663  -2.7274  -2.6929
    -2.6713  -2.5842  -2.5307  -0.9102   4.5312   6.4479   7.4941   8.5743
     9.8228  10.0529

     occupation numbers 
     1.0000   1.0000   1.0000   1.0000   1.0000   1.0000   1.0000   1.0000
     1.0000   1.0000   1.0000   1.0000   1.0000   1.0000   1.0000   1.0000
     1.0000   1.0000

          k = 0.0000 0.3079 0.0820 ( 14768 PWs)   bands (ev):

    -4.7616  -4.3634  -2.8891  -2.8673  -2.8144  -2.7697  -2.7237  -2.6943
    -2.6686  -2.5872  -2.5069  -1.0159   4.6519   6.5479   7.3826   8.6175
     9.8139   9.9968

     occupation numbers 
     1.0000   1.0000   1.0000   1.0000   1.0000   1.0000   1.0000   1.0000
     1.0000   1.0000   1.0000   1.0000   1.0000   1.0000   1.0000   1.0000
     1.0000   1.0000

          k = 0.0000 0.3079 0.1229 ( 14762 PWs)   bands (ev):

    -4.7232  -4.3707  -2.8896  -2.8619  -2.8237  -2.7754  -2.7206  -2.6966
    -2.6642  -2.5922  -2.4656  -1.1732   4.8308   6.6763   7.2614   8.6881
     9.7609   9.9073

     occupation numbers 
     1.0000   1.0000   1.0000   1.0000   1.0000   1.0000   1.0000   1.0000
     1.0000   1.0000   1.0000   1.0000   1.0000   1.0000   1.0000   1.0000
     1.0000   1.0000

          k = 0.0000 0.3079 0.1639 ( 14763 PWs)   bands (ev):

    -4.6744  -4.3829  -2.8888  -2.8547  -2.8337  -2.7830  -2.7187  -2.6997
    -2.6583  -2.5987  -2.4053  -1.3613   5.0459   6.6888   7.2946   8.7838
     9.6318   9.7901

     occupation numbers 
     1.0000   1.0000   1.0000   1.0000   1.0000   1.0000   1.0000   1.0000
     1.0000   1.0000   1.0000   1.0000   1.0000   1.0000   1.0000   1.0000
     1.0000   1.0000

          k = 0.0000 0.3079 0.2049 ( 14749 PWs)   bands (ev):

    -4.6195  -4.4018  -2.8860  -2.8459  -2.8439  -2.7922  -2.7175  -2.7033
    -2.6510  -2.6065  -2.3240  -1.5605   5.2802   6.5175   7.5576   8.9015
     9.4112   9.6521

     occupation numbers 
     1.0000   1.0000   1.0000   1.0000   1.0000   1.0000   1.0000   1.0000
     1.0000   1.0000   1.0000   1.0000   1.0000   1.0000   1.0000   1.0000
     1.0000   1.0000

          k = 0.0000 0.3079 0.2459 ( 14735 PWs)   bands (ev):

    -4.5635  -4.4291  -2.8808  -2.8541  -2.8358  -2.8026  -2.7161  -2.7072
    -2.6427  -2.6152  -2.2192  -1.7550   5.5245   6.2812   7.9250   9.0373
     9.1051   9.5005

     occupation numbers 
     1.0000   1.0000   1.0000   1.0000   1.0000   1.0000   1.0000   1.0000
     1.0000   1.0000   1.0000   1.0000   1.0000   1.0000   1.0000   1.0000
     1.0000   1.0000

          k = 0.0000 0.3079 0.2868 ( 14735 PWs)   bands (ev):

    -4.5110  -4.4656  -2.8733  -2.8641  -2.8249  -2.8136  -2.7140  -2.7109
    -2.6337  -2.6244  -2.0891  -1.9334   5.7750   6.0289   8.3304   8.7348
     9.1863   9.3429

     occupation numbers 
     1.0000   1.0000   1.0000   1.0000   1.0000   1.0000   1.0000   1.0000
     1.0000   1.0000   1.0000   1.0000   1.0000   1.0000   1.0000   1.0000
     1.0000   1.0000

          k = 0.0000 0.3849 0.0000 ( 14740 PWs)   bands (ev):

    -4.6354  -4.3355  -2.8809  -2.8632  -2.7825  -2.7272  -2.7270  -2.6919
    -2.6479  -2.5787  -2.2440  -0.7386   4.6957   5.7608   6.7275   8.2522
     9.3711   9.8738

     occupation numbers 
     1.0000   1.0000   1.0000   1.0000   1.0000   1.0000   1.0000   1.0000
     1.0000   1.0000   1.0000   1.0000   1.0000   1.0000   1.0000   1.0000
     1.0000   1.0000

          k = 0.0000 0.3849 0.0410 ( 14739 PWs)   bands (ev):

    -4.6291  -4.3359  -2.8817  -2.8616  -2.7849  -2.7289  -2.7283  -2.6887
    -2.6474  -2.5798  -2.2357  -0.7677   4.6835   5.8275   6.6975   8.2676
     9.3934   9.8529

     occupation numbers 
     1.0000   1.0000   1.0000   1.0000   1.0000   1.0000   1.0000   1.0000
     1.0000   1.0000   1.0000   1.0000   1.0000   1.0000   1.0000   1.0000
     1.0000   1.0000

          k = 0.0000 0.3849 0.0820 ( 14743 PWs)   bands (ev):

    -4.6107  -4.3373  -2.8839  -2.8569  -2.7927  -2.7320  -2.7304  -2.6824
    -2.6459  -2.5829  -2.2105  -0.8508   4.6650   5.9729   6.6504   8.3134
     9.4427   9.7917

     occupation numbers 
     1.0000   1.0000   1.0000   1.0000   1.0000   1.0000   1.0000   1.0000
     1.0000   1.0000   1.0000   1.0000   1.0000   1.0000   1.0000   1.0000
     1.0000   1.0000

          k = 0.0000 0.3849 0.1229 ( 14749 PWs)   bands (ev):

    -4.5821  -4.3406  -2.8866  -2.8494  -2.8054  -2.7382  -2.7283  -2.6773
    -2.6433  -2.5878  -2.1673  -0.9776   4.6694   6.0240   6.7425   8.3882
     9.4765   9.6944

     occupation numbers 
     1.0000   1.0000   1.0000   1.0000   1.0000   1.0000   1.0000   1.0000
     1.0000   1.0000   1.0000   1.0000   1.0000   1.0000   1.0000   1.0000
     1.0000   1.0000

          k = 0.0000 0.3849 0.1639 ( 14740 PWs)   bands (ev):

    -4.5462  -4.3471  -2.8884  -2.8393  -2.8209  -2.7468  -2.7226  -2.6751
    -2.6397  -2.5941  -2.1047  -1.1339   4.7117   5.8955   7.0505   8.4897
     9.4469   9.5674

     occupation numbers 
     1.0000   1.0000   1.0000   1.0000   1.0000   1.0000   1.0000   1.0000
     1.0000   1.0000   1.0000   1.0000   1.0000   1.0000   1.0000   1.0000
     1.0000   1.0000

          k = 0.0000 0.3849 0.2049 ( 14744 PWs)   bands (ev):

    -4.5064  -4.3581  -2.8880  -2.8373  -2.8271  -2.7577  -2.7146  -2.6764
    -2.6351  -2.6012  -2.0212  -1.3048   4.7959   5.6930   7.4619   8.6148
     9.3193   9.4182

     occupation numbers 
     1.0000   1.0000   1.0000   1.0000   1.0000   1.0000   1.0000   1.0000
     1.0000   1.0000   1.0000   1.0000   1.0000   1.0000   1.0000   1.0000
     1.0000   1.0000

          k = 0.0000 0.3849 0.2459 ( 14741 PWs)   bands (ev):

    -4.4666  -4.3752  -2.8845  -2.8530  -2.8135  -2.7704  -2.7055  -2.6808
    -2.6295  -2.6086  -1.9157  -1.4772   4.9197   5.4756   7.9071   8.7594
     9.0827   9.2550

     occupation numbers 
     1.0000   1.0000   1.0000   1.0000   1.0000   1.0000   1.0000   1.0000
     1.0000   1.0000   1.0000   1.0000   1.0000   1.0000   1.0000   1.0000
     1.0000   1.0000

          k = 0.0000 0.3849 0.2868 ( 14733 PWs)   bands (ev):

    -4.4300  -4.3991  -2.8774  -2.8666  -2.7990  -2.7844  -2.6961  -2.6876
    -2.6231  -2.6160  -1.7883  -1.6408   5.0787   5.2668   8.3473   8.7497
     8.9184   9.0859

     occupation numbers 
     1.0000   1.0000   1.0000   1.0000   1.0000   1.0000   1.0000   1.0000
     1.0000   1.0000   1.0000   1.0000   1.0000   1.0000   1.0000   1.0000
     1.0000   1.0000

          k = 0.0000 0.4619 0.0000 ( 14726 PWs)   bands (ev):

    -4.5301  -4.3222  -2.8821  -2.8609  -2.7716  -2.7264  -2.6990  -2.6830
    -2.6228  -2.5741  -1.8511  -0.7081   4.4531   5.6407   6.2654   8.0257
     8.8771   9.7211

     occupation numbers 
     1.0000   1.0000   1.0000   1.0000   1.0000   1.0000   1.0000   1.0000
     1.0000   1.0000   1.0000   1.0000   1.0000   1.0000   1.0000   1.0000
     1.0000   1.0000

          k = 0.0000 0.4619 0.0410 ( 14736 PWs)   bands (ev):

    -4.5253  -4.3221  -2.8833  -2.8590  -2.7715  -2.7338  -2.7003  -2.6761
    -2.6226  -2.5752  -1.8438  -0.7265   4.4180   5.6374   6.3126   8.0417
     8.9182   9.6991

     occupation numbers 
     1.0000   1.0000   1.0000   1.0000   1.0000   1.0000   1.0000   1.0000
     1.0000   1.0000   1.0000   1.0000   1.0000   1.0000   1.0000   1.0000
     1.0000   1.0000

          k = 0.0000 0.4619 0.0820 ( 14733 PWs)   bands (ev):

    -4.5115  -4.3220  -2.8863  -2.8534  -2.7772  -2.7415  -2.7044  -2.6641
    -2.6219  -2.5783  -1.8216  -0.7801   4.3417   5.5704   6.4934   8.0892
     9.0218   9.6345

     occupation numbers 
     1.0000   1.0000   1.0000   1.0000   1.0000   1.0000   1.0000   1.0000
     1.0000   1.0000   1.0000   1.0000   1.0000   1.0000   1.0000   1.0000
     1.0000   1.0000

          k = 0.0000 0.4619 0.1229 ( 14739 PWs)   bands (ev):

    -4.4902  -4.3228  -2.8901  -2.8443  -2.7950  -2.7363  -2.7112  -2.6545
[...]
     1.0000   1.0000   1.0000   1.0000   1.0000   1.0000   1.0000   1.0000
     1.0000   1.0000   1.0000   1.0000   1.0000   1.0000   1.0000   1.0000
     1.0000   1.0000

          k = 0.2000 0.5004 0.0820 ( 14739 PWs)   bands (ev):

    -4.4198  -4.3183  -2.9058  -2.8165  -2.7531  -2.7204  -2.7094  -2.6754
    -2.6282  -2.6099  -1.3825  -0.6941   4.5711   5.3477   6.4419   7.1825
     8.4010   8.7022

     occupation numbers 
     1.0000   1.0000   1.0000   1.0000   1.0000   1.0000   1.0000   1.0000
     1.0000   1.0000   1.0000   1.0000   1.0000   1.0000   1.0000   1.0000
     1.0000   1.0000

          k = 0.2000 0.5004 0.1229 ( 14745 PWs)   bands (ev):

    -4.4051  -4.3155  -2.8938  -2.8249  -2.7709  -2.7241  -2.7044  -2.6690
    -2.6251  -2.6170  -1.3523  -0.7407   4.4720   5.1904   6.5021   7.4970
     8.2565   8.8912

     occupation numbers 
     1.0000   1.0000   1.0000   1.0000   1.0000   1.0000   1.0000   1.0000
     1.0000   1.0000   1.0000   1.0000   1.0000   1.0000   1.0000   1.0000
     1.0000   1.0000

          k = 0.2000 0.5004 0.1639 ( 14739 PWs)   bands (ev):

    -4.3870  -4.3132  -2.8784  -2.8321  -2.7892  -2.7307  -2.6995  -2.6664
    -2.6279  -2.6170  -1.3101  -0.8025   4.3926   5.0062   6.6050   7.8414
     8.0886   9.0740

     occupation numbers 
     1.0000   1.0000   1.0000   1.0000   1.0000   1.0000   1.0000   1.0000
     1.0000   1.0000   1.0000   1.0000   1.0000   1.0000   1.0000   1.0000
     1.0000   1.0000

          k = 0.2000 0.5004 0.2049 ( 14734 PWs)   bands (ev):

    -4.3677  -4.3128  -2.8624  -2.8351  -2.8056  -2.7413  -2.6955  -2.6698
    -2.6284  -2.6148  -1.2562  -0.8757   4.3516   4.8197   6.7486   7.8131
     8.2779   9.1978

     occupation numbers 
     1.0000   1.0000   1.0000   1.0000   1.0000   1.0000   1.0000   1.0000
     1.0000   1.0000   1.0000   1.0000   1.0000   1.0000   1.0000   1.0000
     1.0000   1.0000

          k = 0.2000 0.5004 0.2459 ( 14730 PWs)   bands (ev):

    -4.3493  -4.3155  -2.8523  -2.8333  -2.8125  -2.7570  -2.6918  -2.6764
    -2.6246  -2.6144  -1.1915  -0.9558   4.3572   4.6500   6.9266   7.5881
     8.6272   9.2235

     occupation numbers 
     1.0000   1.0000   1.0000   1.0000   1.0000   1.0000   1.0000   1.0000
     1.0000   1.0000   1.0000   1.0000   1.0000   1.0000   1.0000   1.0000
     1.0000   1.0000

          k = 0.2000 0.5004 0.2868 ( 14735 PWs)   bands (ev):

    -4.3339  -4.3224  -2.8466  -2.8395  -2.7979  -2.7768  -2.6877  -2.6827
    -2.6198  -2.6162  -1.1179  -1.0381   4.4112   4.5108   7.1317   7.3555
     8.9245   9.1312

     occupation numbers 
     1.0000   1.0000   1.0000   1.0000   1.0000   1.0000   1.0000   1.0000
     1.0000   1.0000   1.0000   1.0000   1.0000   1.0000   1.0000   1.0000
     1.0000   1.0000

          k = 0.2000 0.5774 0.0000 ( 14732 PWs)   bands (ev):

    -4.4109  -4.3226  -2.9190  -2.8056  -2.7251  -2.7246  -2.6971  -2.6856
    -2.6366  -2.6005  -1.1857  -0.7484   4.5975   5.4670   6.2162   7.1040
     8.1918   8.4920

     occupation numbers 
     1.0000   1.0000   1.0000   1.0000   1.0000   1.0000   1.0000   1.0000
     1.0000   1.0000   1.0000   1.0000   1.0000   1.0000   1.0000   1.0000
     1.0000   1.0000

          k = 0.2000 0.5774 0.0410 ( 14738 PWs)   bands (ev):

    -4.4079  -4.3216  -2.9164  -2.8083  -2.7324  -2.7219  -2.7030  -2.6754
    -2.6364  -2.6028  -1.1817  -0.7532   4.5662   5.4131   6.2260   7.1857
     8.2396   8.4731

     occupation numbers 
     1.0000   1.0000   1.0000   1.0000   1.0000   1.0000   1.0000   1.0000
     1.0000   1.0000   1.0000   1.0000   1.0000   1.0000   1.0000   1.0000
     1.0000   1.0000

          k = 0.2000 0.5774 0.0820 ( 14734 PWs)   bands (ev):

    -4.3994  -4.3188  -2.9086  -2.8150  -2.7499  -2.7151  -2.7083  -2.6620
    -2.6357  -2.6092  -1.1700  -0.7677   4.4864   5.2695   6.2643   7.4054
     8.2695   8.5116

     occupation numbers 
     1.0000   1.0000   1.0000   1.0000   1.0000   1.0000   1.0000   1.0000
     1.0000   1.0000   1.0000   1.0000   1.0000   1.0000   1.0000   1.0000
     1.0000   1.0000

          k = 0.2000 0.5774 0.1229 ( 14741 PWs)   bands (ev):

    -4.3864  -4.3152  -2.8963  -2.8230  -2.7707  -2.7139  -2.7063  -2.6520
    -2.6345  -2.6177  -1.1504  -0.7915   4.3887   5.0754   6.3419   7.7133
     8.1428   8.7059

     occupation numbers 
     1.0000   1.0000   1.0000   1.0000   1.0000   1.0000   1.0000   1.0000
     1.0000   1.0000   1.0000   1.0000   1.0000   1.0000   1.0000   1.0000
     1.0000   1.0000

          k = 0.2000 0.5774 0.1639 ( 14736 PWs)   bands (ev):

    -4.3704  -4.3117  -2.8805  -2.8296  -2.7917  -2.7224  -2.6972  -2.6491
    -2.6327  -2.6236  -1.1233  -0.8239   4.3026   4.8665   6.4603   7.9498
     8.0638   8.9247

     occupation numbers 
     1.0000   1.0000   1.0000   1.0000   1.0000   1.0000   1.0000   1.0000
     1.0000   1.0000   1.0000   1.0000   1.0000   1.0000   1.0000   1.0000
     1.0000   1.0000

          k = 0.2000 0.5774 0.2049 ( 14724 PWs)   bands (ev):

    -4.3536  -4.3098  -2.8643  -2.8307  -2.8109  -2.7355  -2.6888  -2.6544
    -2.6303  -2.6240  -1.0891  -0.8635   4.2487   4.6682   6.6158   7.7252
     8.4181   9.0976

     occupation numbers 
     1.0000   1.0000   1.0000   1.0000   1.0000   1.0000   1.0000   1.0000
     1.0000   1.0000   1.0000   1.0000   1.0000   1.0000   1.0000   1.0000
     1.0000   1.0000

          k = 0.2000 0.5774 0.2459 ( 14725 PWs)   bands (ev):

    -4.3378  -4.3108  -2.8538  -2.8270  -2.8198  -2.7536  -2.6814  -2.6619
    -2.6275  -2.6230  -1.0487  -0.9085   4.2385   4.4971   6.8030   7.4863
     8.7397   9.1801

     occupation numbers 
     1.0000   1.0000   1.0000   1.0000   1.0000   1.0000   1.0000   1.0000
     1.0000   1.0000   1.0000   1.0000   1.0000   1.0000   1.0000   1.0000
     1.0000   1.0000

          k = 0.2000 0.5774 0.2868 ( 14702 PWs)   bands (ev):

    -4.3247  -4.3156  -2.8476  -2.8392  -2.7990  -2.7756  -2.6749  -2.6686
    -2.6250  -2.6233  -1.0037  -0.9561   4.2770   4.3644   7.0156   7.2462
     8.9930   9.1461

     occupation numbers 
     1.0000   1.0000   1.0000   1.0000   1.0000   1.0000   1.0000   1.0000
     1.0000   1.0000   1.0000   1.0000   1.0000   1.0000   1.0000   1.0000
     1.0000   1.0000

          k = 0.2667 0.4619 0.0000 ( 14742 PWs)   bands (ev):

    -4.4264  -4.3232  -2.9217  -2.7812  -2.7365  -2.7301  -2.7133  -2.6900
    -2.6367  -2.6082  -1.4214  -0.6144   4.9433   5.3597   6.3761   6.7882
     8.3494   8.5018

     occupation numbers 
     1.0000   1.0000   1.0000   1.0000   1.0000   1.0000   1.0000   1.0000
     1.0000   1.0000   1.0000   1.0000   1.0000   1.0000   1.0000   1.0000
     1.0000   1.0000

          k = 0.2667 0.4619 0.0410 ( 14752 PWs)   bands (ev):

    -4.4231  -4.3223  -2.9190  -2.7857  -2.7403  -2.7314  -2.7079  -2.6904
    -2.6347  -2.6108  -1.4150  -0.6252   4.8973   5.3436   6.3590   6.8804
     8.3140   8.5595

     occupation numbers 
     1.0000   1.0000   1.0000   1.0000   1.0000   1.0000   1.0000   1.0000
     1.0000   1.0000   1.0000   1.0000   1.0000   1.0000   1.0000   1.0000
     1.0000   1.0000

          k = 0.2667 0.4619 0.0820 ( 14747 PWs)   bands (ev):

    -4.4137  -4.3199  -2.9112  -2.7964  -2.7505  -2.7336  -2.6967  -2.6915
    -2.6297  -2.6180  -1.3956  -0.6568   4.7882   5.2891   6.3317   7.1249
     8.2124   8.7101

     occupation numbers 
     1.0000   1.0000   1.0000   1.0000   1.0000   1.0000   1.0000   1.0000
     1.0000   1.0000   1.0000   1.0000   1.0000   1.0000   1.0000   1.0000
     1.0000   1.0000

          k = 0.2667 0.4619 0.1229 ( 14745 PWs)   bands (ev):

    -4.3993  -4.3166  -2.8986  -2.8087  -2.7647  -2.7363  -2.6930  -2.6856
    -2.6277  -2.6240  -1.3632  -0.7075   4.6671   5.1885   6.3386   7.4580
     8.0604   8.9037

     occupation numbers 
     1.0000   1.0000   1.0000   1.0000   1.0000   1.0000   1.0000   1.0000
     1.0000   1.0000   1.0000   1.0000   1.0000   1.0000   1.0000   1.0000
     1.0000   1.0000

          k = 0.2667 0.4619 0.1639 ( 14744 PWs)   bands (ev):

    -4.3818  -4.3138  -2.8818  -2.8198  -2.7801  -2.7408  -2.6947  -2.6802
    -2.6347  -2.6191  -1.3180  -0.7744   4.5694   5.0499   6.4038   7.7426
     7.9602   9.0862

     occupation numbers 
     1.0000   1.0000   1.0000   1.0000   1.0000   1.0000   1.0000   1.0000
     1.0000   1.0000   1.0000   1.0000   1.0000   1.0000   1.0000   1.0000
     1.0000   1.0000

          k = 0.2667 0.4619 0.2049 ( 14750 PWs)   bands (ev):

    -4.3632  -4.3126  -2.8621  -2.8279  -2.7945  -2.7490  -2.6962  -2.6838
    -2.6337  -2.6161  -1.2603  -0.8532   4.5130   4.8961   6.5258   7.5899
     8.2778   9.2093

     occupation numbers 
     1.0000   1.0000   1.0000   1.0000   1.0000   1.0000   1.0000   1.0000
     1.0000   1.0000   1.0000   1.0000   1.0000   1.0000   1.0000   1.0000
     1.0000   1.0000

          k = 0.2667 0.4619 0.2459 ( 14724 PWs)   bands (ev):

    -4.3457  -4.3146  -2.8424  -2.8323  -2.8042  -2.7627  -2.6973  -2.6908
    -2.6279  -2.6155  -1.1912  -0.9392   4.5047   4.7501   6.6934   7.3568
     8.6358   9.2352

     occupation numbers 
     1.0000   1.0000   1.0000   1.0000   1.0000   1.0000   1.0000   1.0000
     1.0000   1.0000   1.0000   1.0000   1.0000   1.0000   1.0000   1.0000
     1.0000   1.0000

          k = 0.2667 0.4619 0.2868 ( 14732 PWs)   bands (ev):

    -4.3311  -4.3206  -2.8328  -2.8324  -2.7997  -2.7813  -2.6974  -2.6955
    -2.6218  -2.6175  -1.1126  -1.0273   4.5447   4.6290   6.8951   7.1201
     8.9363   9.1434

     occupation numbers 
     1.0000   1.0000   1.0000   1.0000   1.0000   1.0000   1.0000   1.0000
     1.0000   1.0000   1.0000   1.0000   1.0000   1.0000   1.0000   1.0000
     1.0000   1.0000

          k = 0.2667 0.5389 0.0000 ( 14752 PWs)   bands (ev):

    -4.3849  -4.3306  -2.9295  -2.7664  -2.7228  -2.7173  -2.7097  -2.6939
    -2.6491  -2.6104  -1.1003  -0.7171   4.9349   5.3592   5.8471   7.2197
     8.0502   8.1298

     occupation numbers 
     1.0000   1.0000   1.0000   1.0000   1.0000   1.0000   1.0000   1.0000
     1.0000   1.0000   1.0000   1.0000   1.0000   1.0000   1.0000   1.0000
     1.0000   1.0000

          k = 0.2667 0.5389 0.0410 ( 14741 PWs)   bands (ev):

    -4.3823  -4.3293  -2.9267  -2.7713  -2.7304  -2.7182  -2.7068  -2.6870
    -2.6483  -2.6132  -1.0965  -0.7211   4.9003   5.3221   5.8377   7.3044
     8.0418   8.1681

     occupation numbers 
     1.0000   1.0000   1.0000   1.0000   1.0000   1.0000   1.0000   1.0000
     1.0000   1.0000   1.0000   1.0000   1.0000   1.0000   1.0000   1.0000
     1.0000   1.0000

          k = 0.2667 0.5389 0.0820 ( 14758 PWs)   bands (ev):

    -4.3750  -4.3256  -2.9185  -2.7825  -2.7467  -2.7198  -2.6984  -2.6769
    -2.6458  -2.6211  -1.0853  -0.7331   4.8067   5.2178   5.8375   7.5286
     7.9441   8.3381

     occupation numbers 
     1.0000   1.0000   1.0000   1.0000   1.0000   1.0000   1.0000   1.0000
     1.0000   1.0000   1.0000   1.0000   1.0000   1.0000   1.0000   1.0000
     1.0000   1.0000

          k = 0.2667 0.5389 0.1229 ( 14748 PWs)   bands (ev):

    -4.3639  -4.3203  -2.9050  -2.7954  -2.7650  -2.7229  -2.6900  -2.6689
    -2.6419  -2.6320  -1.0667  -0.7528   4.6838   5.0642   5.8864   7.7434
     7.8742   8.5769

     occupation numbers 
     1.0000   1.0000   1.0000   1.0000   1.0000   1.0000   1.0000   1.0000
     1.0000   1.0000   1.0000   1.0000   1.0000   1.0000   1.0000   1.0000
     1.0000   1.0000

          k = 0.2667 0.5389 0.1639 ( 14737 PWs)   bands (ev):

    -4.3506  -4.3147  -2.8870  -2.8073  -2.7827  -2.7291  -2.6845  -2.6648
    -2.6432  -2.6360  -1.0413  -0.7797   4.5659   4.8907   5.9921   7.5503
     8.2022   8.8243

     occupation numbers 
     1.0000   1.0000   1.0000   1.0000   1.0000   1.0000   1.0000   1.0000
     1.0000   1.0000   1.0000   1.0000   1.0000   1.0000   1.0000   1.0000
     1.0000   1.0000

          k = 0.2667 0.5389 0.2049 ( 14735 PWs)   bands (ev):

    -4.3369  -4.3102  -2.8654  -2.8165  -2.7984  -2.7408  -2.6817  -2.6685
    -2.6435  -2.6326  -1.0098  -0.8128   4.4772   4.7250   6.1458   7.3099
     8.5433   9.0309

     occupation numbers 
     1.0000   1.0000   1.0000   1.0000   1.0000   1.0000   1.0000   1.0000
     1.0000   1.0000   1.0000   1.0000   1.0000   1.0000   1.0000   1.0000
     1.0000   1.0000

          k = 0.2667 0.5389 0.2459 ( 14736 PWs)   bands (ev):

    -4.3245  -4.3081  -2.8426  -2.8213  -2.8100  -2.7592  -2.6805  -2.6743
    -2.6387  -2.6309  -0.9733  -0.8508   4.4314   4.5865   6.3378   7.0557
     8.8411   9.1551

     occupation numbers 
     1.0000   1.0000   1.0000   1.0000   1.0000   1.0000   1.0000   1.0000
     1.0000   1.0000   1.0000   1.0000   1.0000   1.0000   1.0000   1.0000
     1.0000   1.0000

          k = 0.2667 0.5389 0.2868 ( 14739 PWs)   bands (ev):

    -4.3151  -4.3096  -2.8285  -2.8236  -2.8056  -2.7825  -2.6796  -2.6779
    -2.6342  -2.6315  -0.9332  -0.8917   4.4345   4.4873   6.5593   6.8017
     9.0588   9.1676

     occupation numbers 
     1.0000   1.0000   1.0000   1.0000   1.0000   1.0000   1.0000   1.0000
     1.0000   1.0000   1.0000   1.0000   1.0000   1.0000   1.0000   1.0000
     1.0000   1.0000

          k = 0.3333 0.5774 0.0000 ( 14724 PWs)   bands (ev):

    -4.3511  -4.3511  -2.9344  -2.7321  -2.7321  -2.7180  -2.7027  -2.7027
    -2.6601  -2.6139  -0.8627  -0.8627   5.2982   5.2982   5.3663   7.6606
     7.6606   7.9155

     occupation numbers 
     1.0000   1.0000   1.0000   1.0000   1.0000   1.0000   1.0000   1.0000
     1.0000   1.0000   1.0000   1.0000   1.0000   1.0000   1.0000   1.0000
     1.0000   1.0000

          k = 0.3333 0.5774 0.0410 ( 14742 PWs)   bands (ev):

    -4.3493  -4.3493  -2.9315  -2.7407  -2.7407  -2.7183  -2.6952  -2.6952
    -2.6605  -2.6169  -0.8622  -0.8622   5.2466   5.2466   5.3878   7.7375
     7.7375   7.8756

     occupation numbers 
     1.0000   1.0000   1.0000   1.0000   1.0000   1.0000   1.0000   1.0000
     1.0000   1.0000   1.0000   1.0000   1.0000   1.0000   1.0000   1.0000
     1.0000   1.0000

          k = 0.3333 0.5774 0.0820 ( 14772 PWs)   bands (ev):

    -4.3439  -4.3439  -2.9230  -2.7565  -2.7565  -2.7192  -2.6824  -2.6824
    -2.6614  -2.6255  -0.8608  -0.8608   5.1147   5.1147   5.4517   7.7608
     7.9430   7.9430

     occupation numbers 
     1.0000   1.0000   1.0000   1.0000   1.0000   1.0000   1.0000   1.0000
     1.0000   1.0000   1.0000   1.0000   1.0000   1.0000   1.0000   1.0000
     1.0000   1.0000

          k = 0.3333 0.5774 0.1229 ( 14739 PWs)   bands (ev):

    -4.3359  -4.3359  -2.9092  -2.7731  -2.7731  -2.7219  -2.6702  -2.6702
    -2.6630  -2.6382  -0.8587  -0.8587   4.9468   4.9468   5.5566   7.5836
     8.2237   8.2237

     occupation numbers 
     1.0000   1.0000   1.0000   1.0000   1.0000   1.0000   1.0000   1.0000
     1.0000   1.0000   1.0000   1.0000   1.0000   1.0000   1.0000   1.0000
     1.0000   1.0000

          k = 0.3333 0.5774 0.1639 ( 14724 PWs)   bands (ev):

    -4.3267  -4.3267  -2.8905  -2.7886  -2.7886  -2.7281  -2.6650  -2.6599
    -2.6599  -2.6522  -0.8563  -0.8563   4.7806   4.7806   5.7002   7.3606
     8.5274   8.5274

     occupation numbers 
     1.0000   1.0000   1.0000   1.0000   1.0000   1.0000   1.0000   1.0000
     1.0000   1.0000   1.0000   1.0000   1.0000   1.0000   1.0000   1.0000
     1.0000   1.0000

          k = 0.3333 0.5774 0.2049 ( 14742 PWs)   bands (ev):

    -4.3178  -4.3178  -2.8677  -2.8016  -2.8016  -2.7407  -2.6672  -2.6635
    -2.6519  -2.6519  -0.8540  -0.8540   4.6401   4.6401   5.8791   7.1090
     8.8084   8.8084

     occupation numbers 
     1.0000   1.0000   1.0000   1.0000   1.0000   1.0000   1.0000   1.0000
     1.0000   1.0000   1.0000   1.0000   1.0000   1.0000   1.0000   1.0000
     1.0000   1.0000

          k = 0.3333 0.5774 0.2459 ( 14745 PWs)   bands (ev):

    -4.3108  -4.3108  -2.8418  -2.8110  -2.8110  -2.7608  -2.6697  -2.6694
    -2.6465  -2.6465  -0.8521  -0.8521   4.5398   4.5398   6.0891   6.8442
     9.0255   9.0255

     occupation numbers 
     1.0000   1.0000   1.0000   1.0000   1.0000   1.0000   1.0000   1.0000
     1.0000   1.0000   1.0000   1.0000   1.0000   1.0000   1.0000   1.0000
     1.0000   1.0000

          k = 0.3333 0.5774 0.2868 ( 14766 PWs)   bands (ev):

    -4.3069  -4.3069  -2.8160  -2.8160  -2.8141  -2.7862  -2.6716  -2.6711
    -2.6438  -2.6438  -0.8511  -0.8511   4.4879   4.4879   6.3248   6.5793
     9.1445   9.1445

     occupation numbers 
     1.0000   1.0000   1.0000   1.0000   1.0000   1.0000   1.0000   1.0000
     1.0000   1.0000   1.0000   1.0000   1.0000   1.0000   1.0000   1.0000
     1.0000   1.0000

     highest occupied level (ev):    10.6177

!    total energy              =    -347.51875600 Ry
     estimated scf accuracy    <       0.00000004 Ry

     The total energy is the sum of the following terms:
     one-electron contribution =    -105.66948453 Ry
     hartree contribution      =      87.58545631 Ry
     xc contribution           =     -96.27790088 Ry
     ewald contribution        =    -233.15682690 Ry

     convergence has been achieved in  19 iterations

     Writing output data file ../tmp/GaN_exc1.save/
 
     init_run     :      5.56s CPU      5.70s WALL (       1 calls)
     electrons    :    173.50s CPU    175.46s WALL (       1 calls)

     Called by init_run:
     wfcinit      :      4.55s CPU      4.64s WALL (       1 calls)
     wfcinit:atom :      0.10s CPU      0.10s WALL (     216 calls)
     wfcinit:wfcr :      3.81s CPU      3.86s WALL (     216 calls)
     potinit      :      0.16s CPU      0.17s WALL (       1 calls)
     hinit0       :      0.37s CPU      0.41s WALL (       1 calls)

     Called by electrons:
     c_bands      :    149.44s CPU    151.05s WALL (      19 calls)
     sum_band     :     23.54s CPU     23.86s WALL (      19 calls)
     v_of_rho     :      0.41s CPU      0.43s WALL (      20 calls)
     v_h          :      0.01s CPU      0.02s WALL (      20 calls)
     v_xc         :      0.39s CPU      0.41s WALL (      20 calls)
     mix_rho      :      0.11s CPU      0.12s WALL (      19 calls)

     Called by c_bands:
     init_us_2    :      5.78s CPU      5.93s WALL (    8424 calls)
     cegterg      :    127.99s CPU    129.45s WALL (    4104 calls)

     Called by sum_band:
     sum_band:wei :      0.00s CPU      0.00s WALL (      19 calls)
     sum_band:loo :     23.48s CPU     23.79s WALL (      19 calls)
     sum_band:buf :      0.49s CPU      0.50s WALL (    4104 calls)
     sum_band:ini :      2.77s CPU      2.83s WALL (    4104 calls)

     Called by *egterg:
     cdiaghg      :      8.98s CPU      9.04s WALL (   12789 calls)
     cegterg:over :      6.95s CPU      7.00s WALL (    8685 calls)
     cegterg:upda :      3.48s CPU      3.51s WALL (    8685 calls)
     cegterg:last :      5.40s CPU      5.43s WALL (    7209 calls)
     cdiaghg:chol :      0.94s CPU      0.95s WALL (   12789 calls)
     cdiaghg:inve :      0.22s CPU      0.22s WALL (   12789 calls)
     cdiaghg:para :      1.07s CPU      1.07s WALL (   25578 calls)
     h_psi        :    101.60s CPU    102.94s WALL (   13005 calls)
     g_psi        :      0.77s CPU      0.78s WALL (    8685 calls)

     Called by h_psi:
     h_psi:calbec :      6.40s CPU      6.49s WALL (   13005 calls)
     vloc_psi     :     87.91s CPU     89.11s WALL (   13005 calls)
     add_vuspsi   :      6.13s CPU      6.19s WALL (   13005 calls)

     General routines
     calbec       :      6.36s CPU      6.46s WALL (   13005 calls)
     fft          :      0.17s CPU      0.20s WALL (     200 calls)
     ffts         :      0.01s CPU      0.01s WALL (      19 calls)
     fftw         :     86.78s CPU     87.86s WALL (  434102 calls)
 
     Parallel routines
 
     PWSCF        :   2m59.62s CPU   3m 2.48s WALL

 
   This run was terminated on:  10:43:36  28Mar2023            

=------------------------------------------------------------------------------=
   JOB DONE.
=------------------------------------------------------------------------------=
