
     Program PWSCF v.6.8 starts on 28Mar2023 at 10:40:31 

     This program is part of the open-source Quantum ESPRESSO suite
     for quantum simulation of materials; please cite
         "P. Giannozzi et al., J. Phys.:Condens. Matter 21 395502 (2009);
         "P. Giannozzi et al., J. Phys.:Condens. Matter 29 465901 (2017);
         "P. Giannozzi et al., J. Chem. Phys. 152 154105 (2020);
          URL http://www.quantum-espresso.org", 
     in publications or presentations arising from this work. More details at
     http://www.quantum-espresso.org/quote

     Parallel version (MPI & OpenMP), running on       6 processor cores
     Number of MPI processes:                 6
     Threads/MPI process:                     1

     MPI processes distributed on     1 nodes
     R & G space division:  proc/nbgrp/npool/nimage =       6
     195054 MiB available memory on the printing compute node when the environment starts
 
     Waiting for input...
     Reading input from standard input
Warning: card &CELL ignored
Warning: card / ignored

     Current dimensions of program PWSCF are:
     Max number of different atomic species (ntypx) = 10
     Max number of k-points (npk) =  40000
     Max angular momentum in pseudopotentials (lmaxx) =  4

     Subspace diagonalization in iterative solution of the eigenvalue problem:
     one sub-group per band group will be used
     scalapack distributed-memory algorithm (size of sub-group:  2*  2 procs)

 
     Parallelization info
     --------------------
     sticks:   dense  smooth     PW     G-vecs:    dense   smooth      PW
     Min         332     332     93                19646    19646    2855
     Max         333     333     94                19651    19651    2860
     Sum        1993    1993    559               117881   117881   17141
 
     Using Slab Decomposition
 


     bravais-lattice index     =            4
     lattice parameter (alat)  =       6.0282  a.u.
     unit-cell volume          =     308.6570 (a.u.)^3
     number of atoms/cell      =            4
     number of atomic types    =            2
     number of electrons       =        36.00
     number of Kohn-Sham states=           18
     kinetic-energy cutoff     =     200.0000  Ry
     charge density cutoff     =     800.0000  Ry
     scf convergence threshold =      1.0E-06
     mixing beta               =       0.7000
     number of iterations used =            8  plain     mixing
     Exchange-correlation= PBE
                           (   1   4   3   4   0   0   0)

     celldm(1)=   6.028226  celldm(2)=   0.000000  celldm(3)=   1.626960
     celldm(4)=   0.000000  celldm(5)=   0.000000  celldm(6)=   0.000000

     crystal axes: (cart. coord. in units of alat)
               a(1) = (   1.000000   0.000000   0.000000 )  
               a(2) = (  -0.500000   0.866025   0.000000 )  
               a(3) = (   0.000000   0.000000   1.626960 )  

     reciprocal axes: (cart. coord. in units 2 pi/alat)
               b(1) = (  1.000000  0.577350  0.000000 )  
               b(2) = (  0.000000  1.154701  0.000000 )  
               b(3) = (  0.000000  0.000000  0.614643 )  


     PseudoPot. # 1 for Ga read from file:
     ../pseudo/Ga_ONCV_PBE_sr.upf
     MD5 check sum: e3654b1fbeb096be7359f640ef9d98d7
     Pseudo is Norm-conserving + core correction, Zval = 13.0
     Generated using ONCVPSP code by D. R. Hamann
     Using radial grid of 1902 points,  6 beta functions with: 
                l(1) =   0
                l(2) =   0
                l(3) =   1
                l(4) =   1
                l(5) =   2
                l(6) =   2

     PseudoPot. # 2 for N  read from file:
     ../pseudo/N_ONCV_PBE_sr.upf
     MD5 check sum: 18c6af81dac9c5a2d6d52ed11cf7bfee
     Pseudo is Norm-conserving + core correction, Zval =  5.0
     Generated using ONCVPSP code by D. R. Hamann
     Using radial grid of 1058 points,  4 beta functions with: 
                l(1) =   0
                l(2) =   0
                l(3) =   1
                l(4) =   1

     atomic species   valence    mass     pseudopotential
        Ga            13.00    69.72300     Ga( 1.00)
        N              5.00    14.00700     N ( 1.00)

     12 Sym. Ops. (no inversion) found ( 6 have fractional translation)


                                    s                        frac. trans.

      isym =  1     identity                                     

 cryst.   s( 1) = (     1          0          0      )
                  (     0          1          0      )
                  (     0          0          1      )

 cart.    s( 1) = (  1.0000000  0.0000000  0.0000000 )
                  (  0.0000000  1.0000000  0.0000000 )
                  (  0.0000000  0.0000000  1.0000000 )


      isym =  2     180 deg rotation - cart. axis [0,0,1]        

 cryst.   s( 2) = (    -1          0          0      )    f =(  0.0000000 )
                  (     0         -1          0      )       (  0.0000000 )
                  (     0          0          1      )       ( -0.5000000 )

 cart.    s( 2) = ( -1.0000000  0.0000000  0.0000000 )    f =(  0.0000000 )
                  (  0.0000000 -1.0000000  0.0000000 )       (  0.0000000 )
                  (  0.0000000  0.0000000  1.0000000 )       ( -0.8134800 )


      isym =  3      60 deg rotation - cryst. axis [0,0,1]       

 cryst.   s( 3) = (     1          1          0      )    f =(  0.0000000 )
                  (    -1          0          0      )       (  0.0000000 )
                  (     0          0          1      )       ( -0.5000000 )

 cart.    s( 3) = (  0.5000000 -0.8660254  0.0000000 )    f =(  0.0000000 )
                  (  0.8660254  0.5000000  0.0000000 )       (  0.0000000 )
                  (  0.0000000  0.0000000  1.0000000 )       ( -0.8134800 )


      isym =  4      60 deg rotation - cryst. axis [0,0,-1]      

 cryst.   s( 4) = (     0         -1          0      )    f =(  0.0000000 )
                  (     1          1          0      )       (  0.0000000 )
                  (     0          0          1      )       ( -0.5000000 )

 cart.    s( 4) = (  0.5000000  0.8660254  0.0000000 )    f =(  0.0000000 )
                  ( -0.8660254  0.5000000  0.0000000 )       (  0.0000000 )
                  (  0.0000000  0.0000000  1.0000000 )       ( -0.8134800 )


      isym =  5     120 deg rotation - cryst. axis [0,0,1]       

 cryst.   s( 5) = (     0          1          0      )
                  (    -1         -1          0      )
                  (     0          0          1      )

 cart.    s( 5) = ( -0.5000000 -0.8660254  0.0000000 )
                  (  0.8660254 -0.5000000  0.0000000 )
                  (  0.0000000  0.0000000  1.0000000 )


      isym =  6     120 deg rotation - cryst. axis [0,0,-1]      

 cryst.   s( 6) = (    -1         -1          0      )
                  (     1          0          0      )
                  (     0          0          1      )

 cart.    s( 6) = ( -0.5000000  0.8660254  0.0000000 )
                  ( -0.8660254 -0.5000000  0.0000000 )
                  (  0.0000000  0.0000000  1.0000000 )


      isym =  7     inv. 180 deg rotation - cart. axis [0,1,0]   

 cryst.   s( 7) = (     1          0          0      )    f =(  0.0000000 )
                  (    -1         -1          0      )       (  0.0000000 )
                  (     0          0          1      )       ( -0.5000000 )

 cart.    s( 7) = (  1.0000000  0.0000000  0.0000000 )    f =(  0.0000000 )
                  (  0.0000000 -1.0000000  0.0000000 )       (  0.0000000 )
                  (  0.0000000  0.0000000  1.0000000 )       ( -0.8134800 )


      isym =  8     inv. 180 deg rotation - cart. axis [1,0,0]   

 cryst.   s( 8) = (    -1          0          0      )
                  (     1          1          0      )
                  (     0          0          1      )

 cart.    s( 8) = ( -1.0000000  0.0000000  0.0000000 )
                  (  0.0000000  1.0000000  0.0000000 )
                  (  0.0000000  0.0000000  1.0000000 )


      isym =  9     inv. 180 deg rotation - cryst. axis [1,-1,0] 

 cryst.   s( 9) = (     0          1          0      )    f =(  0.0000000 )
                  (     1          0          0      )       (  0.0000000 )
                  (     0          0          1      )       ( -0.5000000 )

 cart.    s( 9) = ( -0.5000000  0.8660254  0.0000000 )    f =(  0.0000000 )
                  (  0.8660254  0.5000000  0.0000000 )       (  0.0000000 )
                  (  0.0000000  0.0000000  1.0000000 )       ( -0.8134800 )


      isym = 10     inv. 180 deg rotation - cryst. axis [2,1,0]  

 cryst.   s(10) = (    -1         -1          0      )    f =(  0.0000000 )
                  (     0          1          0      )       (  0.0000000 )
                  (     0          0          1      )       ( -0.5000000 )

 cart.    s(10) = ( -0.5000000 -0.8660254  0.0000000 )    f =(  0.0000000 )
                  ( -0.8660254  0.5000000  0.0000000 )       (  0.0000000 )
                  (  0.0000000  0.0000000  1.0000000 )       ( -0.8134800 )


      isym = 11     inv. 180 deg rotation - cryst. axis [0,1,0]  

 cryst.   s(11) = (     1          1          0      )
                  (     0         -1          0      )
                  (     0          0          1      )

 cart.    s(11) = (  0.5000000  0.8660254  0.0000000 )
                  (  0.8660254 -0.5000000  0.0000000 )
                  (  0.0000000  0.0000000  1.0000000 )


      isym = 12     inv. 180 deg rotation - cryst. axis [1,1,0]  

 cryst.   s(12) = (     0         -1          0      )
                  (    -1          0          0      )
                  (     0          0          1      )

 cart.    s(12) = (  0.5000000 -0.8660254  0.0000000 )
                  ( -0.8660254 -0.5000000  0.0000000 )
                  (  0.0000000  0.0000000  1.0000000 )


     point group C_6v (6mm) 
     there are  6 classes
     the character table:

       E     2C6   2C3   C2    3s_v  3s_d 
A_1    1.00  1.00  1.00  1.00  1.00  1.00
A_2    1.00  1.00  1.00  1.00 -1.00 -1.00
B_1    1.00 -1.00  1.00 -1.00  1.00 -1.00
B_2    1.00 -1.00  1.00 -1.00 -1.00  1.00
E_1    2.00  1.00 -1.00 -2.00  0.00  0.00
E_2    2.00 -1.00 -1.00  2.00  0.00  0.00

     the symmetry operations in each class and the name of the first element:

     E        1
          identity                                               
     2C6      3    4
           60 deg rotation - cryst. axis [0,0,1]                 
     2C3      5    6
          120 deg rotation - cryst. axis [0,0,1]                 
     C2       2
          180 deg rotation - cart. axis [0,0,1]                  
     3s_v     8   12   11
          inv. 180 deg rotation - cart. axis [1,0,0]             
     3s_d     7    9   10
          inv. 180 deg rotation - cart. axis [0,1,0]             

   Cartesian axes

     site n.     atom                  positions (alat units)
         1           Ga  tau(   1) = (   0.5000000   0.2886751   0.8119892  )
         2           Ga  tau(   2) = (   0.0000000   0.5773503   1.6254692  )
         3           N   tau(   3) = (   0.5000000   0.2886751   1.4250808  )
         4           N   tau(   4) = (   0.0000000   0.5773503   0.6116008  )

   Crystallographic axes

     site n.     atom                  positions (cryst. coord.)
         1           Ga  tau(   1) = (  0.6666667  0.3333333  0.4990837  )
         2           Ga  tau(   2) = (  0.3333333  0.6666667  0.9990837  )
         3           N   tau(   3) = (  0.6666667  0.3333333  0.8759163  )
         4           N   tau(   4) = (  0.3333333  0.6666667  0.3759163  )

     number of k points=    84
                       cart. coord. in units 2pi/alat
        k(    1) = (   0.0000000   0.0000000   0.0000000), wk =   0.0020000
        k(    2) = (   0.0000000   0.0000000   0.0614643), wk =   0.0040000
        k(    3) = (   0.0000000   0.0000000   0.1229287), wk =   0.0040000
        k(    4) = (   0.0000000   0.0000000   0.1843930), wk =   0.0040000
        k(    5) = (   0.0000000   0.0000000   0.2458573), wk =   0.0040000
        k(    6) = (   0.0000000   0.0000000  -0.3073216), wk =   0.0020000
        k(    7) = (   0.0000000   0.1154701   0.0000000), wk =   0.0120000
        k(    8) = (   0.0000000   0.1154701   0.0614643), wk =   0.0240000
        k(    9) = (   0.0000000   0.1154701   0.1229287), wk =   0.0240000
        k(   10) = (   0.0000000   0.1154701   0.1843930), wk =   0.0240000
        k(   11) = (   0.0000000   0.1154701   0.2458573), wk =   0.0240000
        k(   12) = (   0.0000000   0.1154701  -0.3073216), wk =   0.0120000
        k(   13) = (   0.0000000   0.2309401   0.0000000), wk =   0.0120000
        k(   14) = (   0.0000000   0.2309401   0.0614643), wk =   0.0240000
        k(   15) = (   0.0000000   0.2309401   0.1229287), wk =   0.0240000
        k(   16) = (   0.0000000   0.2309401   0.1843930), wk =   0.0240000
        k(   17) = (   0.0000000   0.2309401   0.2458573), wk =   0.0240000
        k(   18) = (   0.0000000   0.2309401  -0.3073216), wk =   0.0120000
        k(   19) = (   0.0000000   0.3464102   0.0000000), wk =   0.0120000
        k(   20) = (   0.0000000   0.3464102   0.0614643), wk =   0.0240000
        k(   21) = (   0.0000000   0.3464102   0.1229287), wk =   0.0240000
        k(   22) = (   0.0000000   0.3464102   0.1843930), wk =   0.0240000
        k(   23) = (   0.0000000   0.3464102   0.2458573), wk =   0.0240000
        k(   24) = (   0.0000000   0.3464102  -0.3073216), wk =   0.0120000
        k(   25) = (   0.0000000   0.4618802   0.0000000), wk =   0.0120000
        k(   26) = (   0.0000000   0.4618802   0.0614643), wk =   0.0240000
        k(   27) = (   0.0000000   0.4618802   0.1229287), wk =   0.0240000
        k(   28) = (   0.0000000   0.4618802   0.1843930), wk =   0.0240000
        k(   29) = (   0.0000000   0.4618802   0.2458573), wk =   0.0240000
        k(   30) = (   0.0000000   0.4618802  -0.3073216), wk =   0.0120000
        k(   31) = (   0.0000000  -0.5773503   0.0000000), wk =   0.0060000
        k(   32) = (   0.0000000  -0.5773503   0.0614643), wk =   0.0120000
        k(   33) = (   0.0000000  -0.5773503   0.1229287), wk =   0.0120000
        k(   34) = (   0.0000000  -0.5773503   0.1843930), wk =   0.0120000
        k(   35) = (   0.0000000  -0.5773503   0.2458573), wk =   0.0120000
        k(   36) = (   0.0000000  -0.5773503  -0.3073216), wk =   0.0060000
        k(   37) = (   0.1000000   0.1732051   0.0000000), wk =   0.0120000
        k(   38) = (   0.1000000   0.1732051   0.0614643), wk =   0.0240000
        k(   39) = (   0.1000000   0.1732051   0.1229287), wk =   0.0240000
        k(   40) = (   0.1000000   0.1732051   0.1843930), wk =   0.0240000
        k(   41) = (   0.1000000   0.1732051   0.2458573), wk =   0.0240000
        k(   42) = (   0.1000000   0.1732051  -0.3073216), wk =   0.0120000
        k(   43) = (   0.1000000   0.2886751   0.0000000), wk =   0.0240000
        k(   44) = (   0.1000000   0.2886751   0.0614643), wk =   0.0480000
        k(   45) = (   0.1000000   0.2886751   0.1229287), wk =   0.0480000
        k(   46) = (   0.1000000   0.2886751   0.1843930), wk =   0.0480000
        k(   47) = (   0.1000000   0.2886751   0.2458573), wk =   0.0480000
        k(   48) = (   0.1000000   0.2886751  -0.3073216), wk =   0.0240000
        k(   49) = (   0.1000000   0.4041452   0.0000000), wk =   0.0240000
        k(   50) = (   0.1000000   0.4041452   0.0614643), wk =   0.0480000
        k(   51) = (   0.1000000   0.4041452   0.1229287), wk =   0.0480000
        k(   52) = (   0.1000000   0.4041452   0.1843930), wk =   0.0480000
        k(   53) = (   0.1000000   0.4041452   0.2458573), wk =   0.0480000
        k(   54) = (   0.1000000   0.4041452  -0.3073216), wk =   0.0240000
        k(   55) = (   0.1000000   0.5196152   0.0000000), wk =   0.0240000
        k(   56) = (   0.1000000   0.5196152   0.0614643), wk =   0.0480000
        k(   57) = (   0.1000000   0.5196152   0.1229287), wk =   0.0480000
        k(   58) = (   0.1000000   0.5196152   0.1843930), wk =   0.0480000
        k(   59) = (   0.1000000   0.5196152   0.2458573), wk =   0.0480000
        k(   60) = (   0.1000000   0.5196152  -0.3073216), wk =   0.0240000
        k(   61) = (   0.2000000   0.3464102   0.0000000), wk =   0.0120000
        k(   62) = (   0.2000000   0.3464102   0.0614643), wk =   0.0240000
        k(   63) = (   0.2000000   0.3464102   0.1229287), wk =   0.0240000
        k(   64) = (   0.2000000   0.3464102   0.1843930), wk =   0.0240000
        k(   65) = (   0.2000000   0.3464102   0.2458573), wk =   0.0240000
        k(   66) = (   0.2000000   0.3464102  -0.3073216), wk =   0.0120000
        k(   67) = (   0.2000000   0.4618802   0.0000000), wk =   0.0240000
        k(   68) = (   0.2000000   0.4618802   0.0614643), wk =   0.0480000
        k(   69) = (   0.2000000   0.4618802   0.1229287), wk =   0.0480000
        k(   70) = (   0.2000000   0.4618802   0.1843930), wk =   0.0480000
        k(   71) = (   0.2000000   0.4618802   0.2458573), wk =   0.0480000
        k(   72) = (   0.2000000   0.4618802  -0.3073216), wk =   0.0240000
        k(   73) = (   0.2000000   0.5773503   0.0000000), wk =   0.0120000
        k(   74) = (   0.2000000   0.5773503   0.0614643), wk =   0.0240000
        k(   75) = (   0.2000000   0.5773503   0.1229287), wk =   0.0240000
        k(   76) = (   0.2000000   0.5773503   0.1843930), wk =   0.0240000
        k(   77) = (   0.2000000   0.5773503   0.2458573), wk =   0.0240000
        k(   78) = (   0.2000000   0.5773503  -0.3073216), wk =   0.0120000
        k(   79) = (   0.3000000   0.5196152   0.0000000), wk =   0.0120000
        k(   80) = (   0.3000000   0.5196152   0.0614643), wk =   0.0240000
        k(   81) = (   0.3000000   0.5196152   0.1229287), wk =   0.0240000
        k(   82) = (   0.3000000   0.5196152   0.1843930), wk =   0.0240000
        k(   83) = (   0.3000000   0.5196152   0.2458573), wk =   0.0240000
        k(   84) = (   0.3000000   0.5196152  -0.3073216), wk =   0.0120000

                       cryst. coord.
        k(    1) = (   0.0000000   0.0000000   0.0000000), wk =   0.0020000
        k(    2) = (   0.0000000   0.0000000   0.1000000), wk =   0.0040000
        k(    3) = (   0.0000000   0.0000000   0.2000000), wk =   0.0040000
        k(    4) = (   0.0000000   0.0000000   0.3000000), wk =   0.0040000
        k(    5) = (   0.0000000   0.0000000   0.4000000), wk =   0.0040000
        k(    6) = (   0.0000000   0.0000000  -0.5000000), wk =   0.0020000
        k(    7) = (   0.0000000   0.1000000   0.0000000), wk =   0.0120000
        k(    8) = (   0.0000000   0.1000000   0.1000000), wk =   0.0240000
        k(    9) = (   0.0000000   0.1000000   0.2000000), wk =   0.0240000
        k(   10) = (   0.0000000   0.1000000   0.3000000), wk =   0.0240000
        k(   11) = (   0.0000000   0.1000000   0.4000000), wk =   0.0240000
        k(   12) = (   0.0000000   0.1000000  -0.5000000), wk =   0.0120000
        k(   13) = (   0.0000000   0.2000000   0.0000000), wk =   0.0120000
        k(   14) = (   0.0000000   0.2000000   0.1000000), wk =   0.0240000
        k(   15) = (   0.0000000   0.2000000   0.2000000), wk =   0.0240000
        k(   16) = (   0.0000000   0.2000000   0.3000000), wk =   0.0240000
        k(   17) = (   0.0000000   0.2000000   0.4000000), wk =   0.0240000
        k(   18) = (   0.0000000   0.2000000  -0.5000000), wk =   0.0120000
        k(   19) = (   0.0000000   0.3000000   0.0000000), wk =   0.0120000
        k(   20) = (   0.0000000   0.3000000   0.1000000), wk =   0.0240000
        k(   21) = (   0.0000000   0.3000000   0.2000000), wk =   0.0240000
        k(   22) = (   0.0000000   0.3000000   0.3000000), wk =   0.0240000
        k(   23) = (   0.0000000   0.3000000   0.4000000), wk =   0.0240000
        k(   24) = (   0.0000000   0.3000000  -0.5000000), wk =   0.0120000
        k(   25) = (   0.0000000   0.4000000   0.0000000), wk =   0.0120000
        k(   26) = (   0.0000000   0.4000000   0.1000000), wk =   0.0240000
        k(   27) = (   0.0000000   0.4000000   0.2000000), wk =   0.0240000
        k(   28) = (   0.0000000   0.4000000   0.3000000), wk =   0.0240000
        k(   29) = (   0.0000000   0.4000000   0.4000000), wk =   0.0240000
        k(   30) = (   0.0000000   0.4000000  -0.5000000), wk =   0.0120000
        k(   31) = (   0.0000000  -0.5000000   0.0000000), wk =   0.0060000
        k(   32) = (   0.0000000  -0.5000000   0.1000000), wk =   0.0120000
        k(   33) = (   0.0000000  -0.5000000   0.2000000), wk =   0.0120000
        k(   34) = (   0.0000000  -0.5000000   0.3000000), wk =   0.0120000
        k(   35) = (   0.0000000  -0.5000000   0.4000000), wk =   0.0120000
        k(   36) = (   0.0000000  -0.5000000  -0.5000000), wk =   0.0060000
        k(   37) = (   0.1000000   0.1000000   0.0000000), wk =   0.0120000
        k(   38) = (   0.1000000   0.1000000   0.1000000), wk =   0.0240000
        k(   39) = (   0.1000000   0.1000000   0.2000000), wk =   0.0240000
        k(   40) = (   0.1000000   0.1000000   0.3000000), wk =   0.0240000
        k(   41) = (   0.1000000   0.1000000   0.4000000), wk =   0.0240000
        k(   42) = (   0.1000000   0.1000000  -0.5000000), wk =   0.0120000
        k(   43) = (   0.1000000   0.2000000   0.0000000), wk =   0.0240000
        k(   44) = (   0.1000000   0.2000000   0.1000000), wk =   0.0480000
        k(   45) = (   0.1000000   0.2000000   0.2000000), wk =   0.0480000
        k(   46) = (   0.1000000   0.2000000   0.3000000), wk =   0.0480000
        k(   47) = (   0.1000000   0.2000000   0.4000000), wk =   0.0480000
        k(   48) = (   0.1000000   0.2000000  -0.5000000), wk =   0.0240000
        k(   49) = (   0.1000000   0.3000000   0.0000000), wk =   0.0240000
        k(   50) = (   0.1000000   0.3000000   0.1000000), wk =   0.0480000
        k(   51) = (   0.1000000   0.3000000   0.2000000), wk =   0.0480000
        k(   52) = (   0.1000000   0.3000000   0.3000000), wk =   0.0480000
        k(   53) = (   0.1000000   0.3000000   0.4000000), wk =   0.0480000
        k(   54) = (   0.1000000   0.3000000  -0.5000000), wk =   0.0240000
        k(   55) = (   0.1000000   0.4000000   0.0000000), wk =   0.0240000
        k(   56) = (   0.1000000   0.4000000   0.1000000), wk =   0.0480000
        k(   57) = (   0.1000000   0.4000000   0.2000000), wk =   0.0480000
        k(   58) = (   0.1000000   0.4000000   0.3000000), wk =   0.0480000
        k(   59) = (   0.1000000   0.4000000   0.4000000), wk =   0.0480000
        k(   60) = (   0.1000000   0.4000000  -0.5000000), wk =   0.0240000
        k(   61) = (   0.2000000   0.2000000   0.0000000), wk =   0.0120000
        k(   62) = (   0.2000000   0.2000000   0.1000000), wk =   0.0240000
        k(   63) = (   0.2000000   0.2000000   0.2000000), wk =   0.0240000
        k(   64) = (   0.2000000   0.2000000   0.3000000), wk =   0.0240000
        k(   65) = (   0.2000000   0.2000000   0.4000000), wk =   0.0240000
        k(   66) = (   0.2000000   0.2000000  -0.5000000), wk =   0.0120000
        k(   67) = (   0.2000000   0.3000000   0.0000000), wk =   0.0240000
        k(   68) = (   0.2000000   0.3000000   0.1000000), wk =   0.0480000
        k(   69) = (   0.2000000   0.3000000   0.2000000), wk =   0.0480000
        k(   70) = (   0.2000000   0.3000000   0.3000000), wk =   0.0480000
        k(   71) = (   0.2000000   0.3000000   0.4000000), wk =   0.0480000
        k(   72) = (   0.2000000   0.3000000  -0.5000000), wk =   0.0240000
        k(   73) = (   0.2000000   0.4000000   0.0000000), wk =   0.0120000
        k(   74) = (   0.2000000   0.4000000   0.1000000), wk =   0.0240000
        k(   75) = (   0.2000000   0.4000000   0.2000000), wk =   0.0240000
        k(   76) = (   0.2000000   0.4000000   0.3000000), wk =   0.0240000
        k(   77) = (   0.2000000   0.4000000   0.4000000), wk =   0.0240000
        k(   78) = (   0.2000000   0.4000000  -0.5000000), wk =   0.0120000
        k(   79) = (   0.3000000   0.3000000   0.0000000), wk =   0.0120000
        k(   80) = (   0.3000000   0.3000000   0.1000000), wk =   0.0240000
        k(   81) = (   0.3000000   0.3000000   0.2000000), wk =   0.0240000
        k(   82) = (   0.3000000   0.3000000   0.3000000), wk =   0.0240000
        k(   83) = (   0.3000000   0.3000000   0.4000000), wk =   0.0240000
        k(   84) = (   0.3000000   0.3000000  -0.5000000), wk =   0.0120000

     Dense  grid:   117881 G-vectors     FFT dimensions: (  60,  60,  90)

     Dynamical RAM for                 wfc:       0.67 MB

     Dynamical RAM for     wfc (w. buffer):      57.36 MB

     Dynamical RAM for           str. fact:       0.60 MB

     Dynamical RAM for           local pot:       0.00 MB

     Dynamical RAM for          nlocal pot:       1.95 MB

     Dynamical RAM for                qrad:       4.54 MB

     Dynamical RAM for          rho,v,vnew:       2.14 MB

     Dynamical RAM for               rhoin:       0.71 MB

     Dynamical RAM for            rho*nmix:       4.80 MB

     Dynamical RAM for           G-vectors:       1.27 MB

     Dynamical RAM for          h,s,v(r/c):       0.01 MB

     Dynamical RAM for          <psi|beta>:       0.01 MB

     Dynamical RAM for                 psi:       1.35 MB

     Dynamical RAM for                hpsi:       1.35 MB

     Dynamical RAM for      wfcinit/wfcrot:       1.97 MB

     Estimated static dynamical RAM per process >      71.53 MB

     Estimated max dynamical RAM per process >      79.05 MB

     Estimated total dynamical RAM >     474.32 MB

     Initial potential from superposition of free atoms

     starting charge   35.99464, renormalised to   36.00000
     Starting wfcs are   26 randomized atomic wfcs

     total cpu time spent up to now is        2.9 secs

     Self-consistent Calculation

     iteration #  1     ecut=   200.00 Ry     beta= 0.70
     Davidson diagonalization with overlap

---- Real-time Memory Report at c_bands before calling an iterative solver
           155 MiB given to the printing process from OS
             0 MiB allocation reported by mallinfo(arena+hblkhd)
        194240 MiB available memory on the node where the printing process lives
------------------
     ethr =  1.00E-02,  avg # of iterations =  2.0

     total cpu time spent up to now is        6.7 secs

     total energy              =    -347.03570592 Ry
     estimated scf accuracy    <       1.04374791 Ry

     iteration #  2     ecut=   200.00 Ry     beta= 0.70
     Davidson diagonalization with overlap

---- Real-time Memory Report at c_bands before calling an iterative solver
           170 MiB given to the printing process from OS
             0 MiB allocation reported by mallinfo(arena+hblkhd)
        193405 MiB available memory on the node where the printing process lives
------------------
     ethr =  2.90E-03,  avg # of iterations =  3.0

     total cpu time spent up to now is       10.9 secs

     total energy              =    -347.38201300 Ry
     estimated scf accuracy    <       0.87558460 Ry

     iteration #  3     ecut=   200.00 Ry     beta= 0.70
     Davidson diagonalization with overlap

---- Real-time Memory Report at c_bands before calling an iterative solver
           174 MiB given to the printing process from OS
             0 MiB allocation reported by mallinfo(arena+hblkhd)
        192901 MiB available memory on the node where the printing process lives
------------------
     ethr =  2.43E-03,  avg # of iterations =  2.0

     negative rho (up, down):  3.513E-07 0.000E+00

     total cpu time spent up to now is       14.5 secs

     total energy              =    -347.48864121 Ry
     estimated scf accuracy    <       0.02838549 Ry

     iteration #  4     ecut=   200.00 Ry     beta= 0.70
     Davidson diagonalization with overlap

---- Real-time Memory Report at c_bands before calling an iterative solver
           175 MiB given to the printing process from OS
             0 MiB allocation reported by mallinfo(arena+hblkhd)
        192900 MiB available memory on the node where the printing process lives
------------------
     ethr =  7.88E-05,  avg # of iterations =  5.0

     negative rho (up, down):  4.433E-08 0.000E+00

     total cpu time spent up to now is       19.8 secs

     total energy              =    -347.51655150 Ry
     estimated scf accuracy    <       0.09064375 Ry

     iteration #  5     ecut=   200.00 Ry     beta= 0.70
     Davidson diagonalization with overlap

---- Real-time Memory Report at c_bands before calling an iterative solver
           178 MiB given to the printing process from OS
             0 MiB allocation reported by mallinfo(arena+hblkhd)
        192833 MiB available memory on the node where the printing process lives
------------------
     ethr =  7.88E-05,  avg # of iterations =  2.5

     negative rho (up, down):  4.307E-08 0.000E+00

     total cpu time spent up to now is       23.6 secs

     total energy              =    -347.52213475 Ry
     estimated scf accuracy    <       0.01835439 Ry

     iteration #  6     ecut=   200.00 Ry     beta= 0.70
     Davidson diagonalization with overlap

---- Real-time Memory Report at c_bands before calling an iterative solver
           178 MiB given to the printing process from OS
             0 MiB allocation reported by mallinfo(arena+hblkhd)
        192828 MiB available memory on the node where the printing process lives
------------------
     ethr =  5.10E-05,  avg # of iterations =  1.0

     negative rho (up, down):  1.695E-08 0.000E+00

     total cpu time spent up to now is       26.6 secs

     total energy              =    -347.52177383 Ry
     estimated scf accuracy    <       0.01538185 Ry

     iteration #  7     ecut=   200.00 Ry     beta= 0.70
     Davidson diagonalization with overlap

---- Real-time Memory Report at c_bands before calling an iterative solver
           179 MiB given to the printing process from OS
             0 MiB allocation reported by mallinfo(arena+hblkhd)
        192826 MiB available memory on the node where the printing process lives
------------------
     ethr =  4.27E-05,  avg # of iterations =  1.0

     total cpu time spent up to now is       29.6 secs

     total energy              =    -347.52105293 Ry
     estimated scf accuracy    <       0.01326296 Ry

     iteration #  8     ecut=   200.00 Ry     beta= 0.70
     Davidson diagonalization with overlap

---- Real-time Memory Report at c_bands before calling an iterative solver
           179 MiB given to the printing process from OS
             0 MiB allocation reported by mallinfo(arena+hblkhd)
        192824 MiB available memory on the node where the printing process lives
------------------
     ethr =  3.68E-05,  avg # of iterations =  1.0

     total cpu time spent up to now is       32.6 secs

     total energy              =    -347.51741836 Ry
     estimated scf accuracy    <       0.01022097 Ry

     iteration #  9     ecut=   200.00 Ry     beta= 0.70
     Davidson diagonalization with overlap

---- Real-time Memory Report at c_bands before calling an iterative solver
           179 MiB given to the printing process from OS
             0 MiB allocation reported by mallinfo(arena+hblkhd)
        192809 MiB available memory on the node where the printing process lives
------------------
     ethr =  2.84E-05,  avg # of iterations =  2.1

     total cpu time spent up to now is       36.3 secs

     total energy              =    -347.51884912 Ry
     estimated scf accuracy    <       0.00084541 Ry

     iteration # 10     ecut=   200.00 Ry     beta= 0.70
     Davidson diagonalization with overlap

---- Real-time Memory Report at c_bands before calling an iterative solver
           180 MiB given to the printing process from OS
             0 MiB allocation reported by mallinfo(arena+hblkhd)
        192796 MiB available memory on the node where the printing process lives
------------------
     ethr =  2.35E-06,  avg # of iterations =  3.9

     total cpu time spent up to now is       40.3 secs

     total energy              =    -347.51889115 Ry
     estimated scf accuracy    <       0.00065062 Ry

     iteration # 11     ecut=   200.00 Ry     beta= 0.70
     Davidson diagonalization with overlap

---- Real-time Memory Report at c_bands before calling an iterative solver
           182 MiB given to the printing process from OS
             0 MiB allocation reported by mallinfo(arena+hblkhd)
        192789 MiB available memory on the node where the printing process lives
------------------
     ethr =  1.81E-06,  avg # of iterations =  1.0

     total cpu time spent up to now is       43.5 secs

     total energy              =    -347.51875461 Ry
     estimated scf accuracy    <       0.00054582 Ry

     iteration # 12     ecut=   200.00 Ry     beta= 0.70
     Davidson diagonalization with overlap

---- Real-time Memory Report at c_bands before calling an iterative solver
           182 MiB given to the printing process from OS
             0 MiB allocation reported by mallinfo(arena+hblkhd)
        192785 MiB available memory on the node where the printing process lives
------------------
     ethr =  1.52E-06,  avg # of iterations =  2.0

     total cpu time spent up to now is       47.3 secs

     total energy              =    -347.51881428 Ry
     estimated scf accuracy    <       0.00015722 Ry

     iteration # 13     ecut=   200.00 Ry     beta= 0.70
     Davidson diagonalization with overlap

---- Real-time Memory Report at c_bands before calling an iterative solver
           182 MiB given to the printing process from OS
             0 MiB allocation reported by mallinfo(arena+hblkhd)
        192782 MiB available memory on the node where the printing process lives
------------------
     ethr =  4.37E-07,  avg # of iterations =  1.0

     total cpu time spent up to now is       50.4 secs

     total energy              =    -347.51876414 Ry
     estimated scf accuracy    <       0.00020416 Ry

     iteration # 14     ecut=   200.00 Ry     beta= 0.70
     Davidson diagonalization with overlap

---- Real-time Memory Report at c_bands before calling an iterative solver
           182 MiB given to the printing process from OS
             0 MiB allocation reported by mallinfo(arena+hblkhd)
        192782 MiB available memory on the node where the printing process lives
------------------
     ethr =  4.37E-07,  avg # of iterations =  1.8

     total cpu time spent up to now is       53.9 secs

     total energy              =    -347.51873295 Ry
     estimated scf accuracy    <       0.00008266 Ry

     iteration # 15     ecut=   200.00 Ry     beta= 0.70
     Davidson diagonalization with overlap

---- Real-time Memory Report at c_bands before calling an iterative solver
           182 MiB given to the printing process from OS
             0 MiB allocation reported by mallinfo(arena+hblkhd)
        192782 MiB available memory on the node where the printing process lives
------------------
     ethr =  2.30E-07,  avg # of iterations =  2.9

     total cpu time spent up to now is       58.2 secs

     End of self-consistent calculation

          k = 0.0000 0.0000 0.0000 ( 14739 PWs)   bands (ev):

    -5.3211  -4.4620  -2.9393  -2.9293  -2.9293  -2.8712  -2.8712  -2.6874
    -2.6874  -2.5897  -2.5897  -1.2898   3.5984   9.5887   9.5887  10.5863
    10.6187  10.6187

     occupation numbers 
     1.0000   1.0000   1.0000   1.0000   1.0000   1.0000   1.0000   1.0000
     1.0000   1.0000   1.0000   1.0000   1.0000   1.0000   1.0000   1.0000
     1.0000   1.0000

          k = 0.0000 0.0000 0.0615 ( 14732 PWs)   bands (ev):

    -5.2921  -4.4712  -2.9312  -2.9289  -2.9289  -2.8735  -2.8735  -2.6840
    -2.6840  -2.5912  -2.5912  -1.3990   3.7866   9.6127   9.6127  10.2452
    10.5923  10.5923

     occupation numbers 
     1.0000   1.0000   1.0000   1.0000   1.0000   1.0000   1.0000   1.0000
     1.0000   1.0000   1.0000   1.0000   1.0000   1.0000   1.0000   1.0000
     1.0000   1.0000

          k = 0.0000 0.0000 0.1229 ( 14768 PWs)   bands (ev):

    -5.2084  -4.5012  -2.9274  -2.9274  -2.9033  -2.8800  -2.8800  -2.6747
    -2.6747  -2.5960  -2.5960  -1.6730   4.2971   9.5165   9.6826   9.6826
    10.5160  10.5160

     occupation numbers 
     1.0000   1.0000   1.0000   1.0000   1.0000   1.0000   1.0000   1.0000
     1.0000   1.0000   1.0000   1.0000   1.0000   1.0000   1.0000   1.0000
     1.0000   1.0000

          k = 0.0000 0.0000 0.1844 ( 14786 PWs)   bands (ev):

    -5.0814  -4.5588  -2.9241  -2.9241  -2.8894  -2.8894  -2.8453  -2.6610
    -2.6610  -2.6041  -2.6041  -2.0083   5.0242   8.6527   9.7926   9.7926
    10.3981  10.3981

     occupation numbers 
     1.0000   1.0000   1.0000   1.0000   1.0000   1.0000   1.0000   1.0000
     1.0000   1.0000   1.0000   1.0000   1.0000   1.0000   1.0000   1.0000
     1.0000   1.0000

          k = 0.0000 0.0000 0.2459 ( 14798 PWs)   bands (ev):

    -4.9300  -4.6511  -2.9183  -2.9183  -2.9000  -2.9000  -2.7407  -2.6453
    -2.6453  -2.6154  -2.6154  -2.3223   5.8781   7.7329   9.9329   9.9329
    10.2513  10.2513

     occupation numbers 
     1.0000   1.0000   1.0000   1.0000   1.0000   1.0000   1.0000   1.0000
     1.0000   1.0000   1.0000   1.0000   1.0000   1.0000   1.0000   1.0000
     1.0000   1.0000

          k = 0.0000 0.0000-0.3073 ( 14792 PWs)   bands (ev):

    -4.7789  -4.7789  -2.9100  -2.9100  -2.9100  -2.9100  -2.6295  -2.6295
    -2.6295  -2.6295  -2.5701  -2.5701   6.7959   6.7959  10.0909  10.0909
    10.0909  10.0909

     occupation numbers 
     1.0000   1.0000   1.0000   1.0000   1.0000   1.0000   1.0000   1.0000
     1.0000   1.0000   1.0000   1.0000   1.0000   1.0000   1.0000   1.0000
     1.0000   1.0000

          k = 0.0000 0.1155 0.0000 ( 14743 PWs)   bands (ev):

    -5.2259  -4.4392  -2.9299  -2.9153  -2.8955  -2.8595  -2.8521  -2.6953
    -2.6884  -2.6054  -2.5876  -1.2200   3.7403   8.8750   9.3846   9.7902
    10.4883  10.5301

     occupation numbers 
     1.0000   1.0000   1.0000   1.0000   1.0000   1.0000   1.0000   1.0000
     1.0000   1.0000   1.0000   1.0000   1.0000   1.0000   1.0000   1.0000
     1.0000   1.0000

          k = 0.0000 0.1155 0.0615 ( 14742 PWs)   bands (ev):

    -5.1982  -4.4470  -2.9273  -2.9147  -2.8903  -2.8614  -2.8545  -2.6905
    -2.6851  -2.6076  -2.5893  -1.3257   3.9203   8.9040   9.4107   9.6140
    10.4167  10.4999

     occupation numbers 
     1.0000   1.0000   1.0000   1.0000   1.0000   1.0000   1.0000   1.0000
     1.0000   1.0000   1.0000   1.0000   1.0000   1.0000   1.0000   1.0000
     1.0000   1.0000

          k = 0.0000 0.1155 0.1229 ( 14765 PWs)   bands (ev):

    -5.1189  -4.4729  -2.9215  -2.9126  -2.8751  -2.8612  -2.8612  -2.6765
    -2.6758  -2.6143  -2.5946  -1.5927   4.4091   8.9596   9.1601   9.4869
    10.2558  10.4130

     occupation numbers 
     1.0000   1.0000   1.0000   1.0000   1.0000   1.0000   1.0000   1.0000
     1.0000   1.0000   1.0000   1.0000   1.0000   1.0000   1.0000   1.0000
     1.0000   1.0000

          k = 0.0000 0.1155 0.1844 ( 14793 PWs)   bands (ev):

    -4.9994  -4.5231  -2.9154  -2.9084  -2.8795  -2.8708  -2.8172  -2.6621
    -2.6528  -2.6249  -2.6033  -1.9219   5.1036   8.4129   9.1640   9.6071
    10.0502  10.2796

     occupation numbers 
     1.0000   1.0000   1.0000   1.0000   1.0000   1.0000   1.0000   1.0000
     1.0000   1.0000   1.0000   1.0000   1.0000   1.0000   1.0000   1.0000
     1.0000   1.0000

          k = 0.0000 0.1155 0.2459 ( 14794 PWs)   bands (ev):

    -4.8585  -4.6049  -2.9083  -2.9017  -2.8896  -2.8819  -2.7423  -2.6488
    -2.6462  -2.6154  -2.5971  -2.2307   5.9126   7.6188   9.3524   9.7613
     9.8171  10.1147

     occupation numbers 
     1.0000   1.0000   1.0000   1.0000   1.0000   1.0000   1.0000   1.0000
     1.0000   1.0000   1.0000   1.0000   1.0000   1.0000   1.0000   1.0000
     1.0000   1.0000

          k = 0.0000 0.1155-0.3073 ( 14792 PWs)   bands (ev):

    -4.7200  -4.7200  -2.8996  -2.8996  -2.8926  -2.8926  -2.6799  -2.6799
    -2.6301  -2.6301  -2.4668  -2.4668   6.7686   6.7686   9.5772   9.5772
     9.9360   9.9360

     occupation numbers 
     1.0000   1.0000   1.0000   1.0000   1.0000   1.0000   1.0000   1.0000
     1.0000   1.0000   1.0000   1.0000   1.0000   1.0000   1.0000   1.0000
     1.0000   1.0000

          k = 0.0000 0.2309 0.0000 ( 14753 PWs)   bands (ev):

    -4.9816  -4.3885  -2.9000  -2.8845  -2.8321  -2.8020  -2.7654  -2.7148
    -2.6831  -2.6297  -2.5828  -1.0304   4.1401   7.3950   8.4416   8.9096
    10.1708  10.2822

     occupation numbers 
     1.0000   1.0000   1.0000   1.0000   1.0000   1.0000   1.0000   1.0000
     1.0000   1.0000   1.0000   1.0000   1.0000   1.0000   1.0000   1.0000
     1.0000   1.0000

          k = 0.0000 0.2309 0.0615 ( 14758 PWs)   bands (ev):

    -4.9584  -4.3932  -2.8996  -2.8831  -2.8358  -2.8045  -2.7640  -2.7036
    -2.6802  -2.6285  -2.5849  -1.1255   4.2889   7.4407   8.3346   8.9397
    10.1299  10.2444

     occupation numbers 
     1.0000   1.0000   1.0000   1.0000   1.0000   1.0000   1.0000   1.0000
     1.0000   1.0000   1.0000   1.0000   1.0000   1.0000   1.0000   1.0000
     1.0000   1.0000

          k = 0.0000 0.2309 0.1229 ( 14766 PWs)   bands (ev):

    -4.8926  -4.4094  -2.8977  -2.8786  -2.8438  -2.8116  -2.7590  -2.6825
    -2.6722  -2.6130  -2.5911  -1.3706   4.6900   7.5554   8.0750   9.0281
     9.9738  10.1359

     occupation numbers 
     1.0000   1.0000   1.0000   1.0000   1.0000   1.0000   1.0000   1.0000
     1.0000   1.0000   1.0000   1.0000   1.0000   1.0000   1.0000   1.0000
     1.0000   1.0000

          k = 0.0000 0.2309 0.1844 ( 14766 PWs)   bands (ev):

    -4.7956  -4.4423  -2.8925  -2.8711  -2.8533  -2.8224  -2.7488  -2.6806
    -2.6599  -2.6011  -2.5500  -1.6829   5.2459   7.4686   8.0023   9.1681
     9.6664   9.9713

     occupation numbers 
     1.0000   1.0000   1.0000   1.0000   1.0000   1.0000   1.0000   1.0000
     1.0000   1.0000   1.0000   1.0000   1.0000   1.0000   1.0000   1.0000
     1.0000   1.0000

          k = 0.0000 0.2309 0.2459 ( 14771 PWs)   bands (ev):

    -4.6851  -4.4984  -2.8842  -2.8634  -2.8609  -2.8352  -2.7327  -2.6940
    -2.6451  -2.6142  -2.4297  -1.9892   5.8611   7.0187   8.3177   9.2358
     9.3490   9.7706

     occupation numbers 
     1.0000   1.0000   1.0000   1.0000   1.0000   1.0000   1.0000   1.0000
     1.0000   1.0000   1.0000   1.0000   1.0000   1.0000   1.0000   1.0000
     1.0000   1.0000

          k = 0.0000 0.2309-0.3073 ( 14764 PWs)   bands (ev):

    -4.5810  -4.5810  -2.8740  -2.8740  -2.8486  -2.8486  -2.7130  -2.7130
    -2.6293  -2.6293  -2.2440  -2.2440   6.4659   6.4659   8.7582   8.7582
     9.5561   9.5561

     occupation numbers 
     1.0000   1.0000   1.0000   1.0000   1.0000   1.0000   1.0000   1.0000
     1.0000   1.0000   1.0000   1.0000   1.0000   1.0000   1.0000   1.0000
     1.0000   1.0000

          k = 0.0000 0.3464 0.0000 ( 14754 PWs)   bands (ev):

    -4.7077  -4.3433  -2.8791  -2.8623  -2.7873  -2.7410  -2.7252  -2.6872
    -2.6565  -2.5767  -2.4043  -0.7954   4.6378   6.0173   7.1135   8.3989
     9.6074   9.9702

     occupation numbers 
     1.0000   1.0000   1.0000   1.0000   1.0000   1.0000   1.0000   1.0000
     1.0000   1.0000   1.0000   1.0000   1.0000   1.0000   1.0000   1.0000
     1.0000   1.0000

          k = 0.0000 0.3464 0.0615 ( 14752 PWs)   bands (ev):

    -4.6913  -4.3451  -2.8804  -2.8592  -2.7939  -2.7437  -2.7228  -2.6861
    -2.6550  -2.5791  -2.3857  -0.8697   4.6803   6.1272   7.0315   8.4326
     9.6307   9.9253

     occupation numbers 
     1.0000   1.0000   1.0000   1.0000   1.0000   1.0000   1.0000   1.0000
     1.0000   1.0000   1.0000   1.0000   1.0000   1.0000   1.0000   1.0000
     1.0000   1.0000

          k = 0.0000 0.3464 0.1229 ( 14747 PWs)   bands (ev):

    -4.6457  -4.3518  -2.8828  -2.8504  -2.8094  -2.7517  -2.7184  -2.6848
    -2.6503  -2.5859  -2.3279  -1.0681   4.8018   6.3330   6.9318   8.5313
     9.6290   9.7976

     occupation numbers 
     1.0000   1.0000   1.0000   1.0000   1.0000   1.0000   1.0000   1.0000
     1.0000   1.0000   1.0000   1.0000   1.0000   1.0000   1.0000   1.0000
     1.0000   1.0000

          k = 0.0000 0.3464 0.1844 ( 14746 PWs)   bands (ev):

    -4.5804  -4.3675  -2.8830  -2.8366  -2.8284  -2.7645  -2.7132  -2.6864
    -2.6427  -2.5960  -2.2259  -1.3353   4.9918   6.2011   7.2695   8.6884
     9.4701   9.6053

     occupation numbers 
     1.0000   1.0000   1.0000   1.0000   1.0000   1.0000   1.0000   1.0000
     1.0000   1.0000   1.0000   1.0000   1.0000   1.0000   1.0000   1.0000
     1.0000   1.0000

          k = 0.0000 0.3464 0.2459 ( 14738 PWs)   bands (ev):

    -4.5090  -4.3974  -2.8776  -2.8480  -2.8193  -2.7812  -2.7067  -2.6916
    -2.6326  -2.6081  -2.0739  -1.6154   5.2418   5.8767   7.8800   8.8925
     9.0892   9.3731

     occupation numbers 
     1.0000   1.0000   1.0000   1.0000   1.0000   1.0000   1.0000   1.0000
     1.0000   1.0000   1.0000   1.0000   1.0000   1.0000   1.0000   1.0000
     1.0000   1.0000

          k = 0.0000 0.3464-0.3073 ( 14736 PWs)   bands (ev):

    -4.4452  -4.4452  -2.8653  -2.8653  -2.8001  -2.8001  -2.6990  -2.6990
    -2.6207  -2.6207  -1.8686  -1.8686   5.5425   5.5425   8.5266   8.5266
     9.1275   9.1275

     occupation numbers 
     1.0000   1.0000   1.0000   1.0000   1.0000   1.0000   1.0000   1.0000
     1.0000   1.0000   1.0000   1.0000   1.0000   1.0000   1.0000   1.0000
     1.0000   1.0000

          k = 0.0000 0.4619 0.0000 ( 14726 PWs)   bands (ev):

    -4.5282  -4.3197  -2.8780  -2.8568  -2.7674  -2.7222  -2.6948  -2.6788
    -2.6185  -2.5698  -1.8480  -0.7055   4.4542   5.6416   6.2663   8.0265
     8.8780   9.7221

     occupation numbers 
     1.0000   1.0000   1.0000   1.0000   1.0000   1.0000   1.0000   1.0000
     1.0000   1.0000   1.0000   1.0000   1.0000   1.0000   1.0000   1.0000
     1.0000   1.0000

          k = 0.0000 0.4619 0.0615 ( 14729 PWs)   bands (ev):

    -4.5176  -4.3196  -2.8805  -2.8525  -2.7687  -2.7349  -2.6977  -2.6658
    -2.6180  -2.5722  -1.8315  -0.7465   4.3829   5.6174   6.3846   8.0624
     8.9657   9.6729

     occupation numbers 
     1.0000   1.0000   1.0000   1.0000   1.0000   1.0000   1.0000   1.0000
     1.0000   1.0000   1.0000   1.0000   1.0000   1.0000   1.0000   1.0000
     1.0000   1.0000

          k = 0.0000 0.4619 0.1229 ( 14739 PWs)   bands (ev):

    -4.4883  -4.3204  -2.8860  -2.8401  -2.7908  -2.7321  -2.7070  -2.6503
    -2.6165  -2.5786  -1.7810  -0.8618   4.2732   5.4138   6.8096   8.1678
     9.1407   9.5329

     occupation numbers 
     1.0000   1.0000   1.0000   1.0000   1.0000   1.0000   1.0000   1.0000
     1.0000   1.0000   1.0000   1.0000   1.0000   1.0000   1.0000   1.0000
     1.0000   1.0000

          k = 0.0000 0.4619 0.1844 ( 14727 PWs)   bands (ev):

    -4.4471  -4.3256  -2.8901  -2.8243  -2.8208  -2.7228  -2.7122  -2.6446
    -2.6136  -2.5871  -1.6937  -1.0295   4.2407   5.0961   7.4190   8.3356
     9.2228   9.3232

     occupation numbers 
     1.0000   1.0000   1.0000   1.0000   1.0000   1.0000   1.0000   1.0000
     1.0000   1.0000   1.0000   1.0000   1.0000   1.0000   1.0000   1.0000
     1.0000   1.0000

          k = 0.0000 0.4619 0.2459 ( 14733 PWs)   bands (ev):

    -4.4033  -4.3398  -2.8879  -2.8545  -2.7966  -2.7445  -2.6882  -2.6504
    -2.6092  -2.5957  -1.5682  -1.2206   4.3193   4.7740   8.0711   8.5540
     9.0689   9.0714

     occupation numbers 
     1.0000   1.0000   1.0000   1.0000   1.0000   1.0000   1.0000   1.0000
     1.0000   1.0000   1.0000   1.0000   1.0000   1.0000   1.0000   1.0000
     1.0000   1.0000

          k = 0.0000 0.4619-0.3073 ( 14726 PWs)   bands (ev):

    -4.3658  -4.3658  -2.8763  -2.8763  -2.7701  -2.7701  -2.6661  -2.6661
    -2.6032  -2.6032  -1.4069  -1.4069   4.5040   4.5040   8.6575   8.6575
     8.8064   8.8064

     occupation numbers 
     1.0000   1.0000   1.0000   1.0000   1.0000   1.0000   1.0000   1.0000
     1.0000   1.0000   1.0000   1.0000   1.0000   1.0000   1.0000   1.0000
     1.0000   1.0000

          k = 0.0000-0.5774 0.0000 ( 14702 PWs)   bands (ev):

    -4.4721  -4.3134  -2.8817  -2.8569  -2.7606  -2.7258  -2.6786  -2.6666
    -2.6005  -2.5662  -1.4051  -0.8507   4.1916   5.3535   6.4419   7.8916
     8.4352   9.6290

     occupation numbers 
     1.0000   1.0000   1.0000   1.0000   1.0000   1.0000   1.0000   1.0000
     1.0000   1.0000   1.0000   1.0000   1.0000   1.0000   1.0000   1.0000
     1.0000   1.0000

          k = 0.0000-0.5774 0.0615 ( 14710 PWs)   bands (ev):

    -4.4635  -4.3127  -2.8844  -2.8522  -2.7536  -2.7474  -2.6818  -2.6525
    -2.6003  -2.5685  -1.3960  -0.8668   4.1210   5.2333   6.6207   7.9283
     8.5569   9.5782

     occupation numbers 
     1.0000   1.0000   1.0000   1.0000   1.0000   1.0000   1.0000   1.0000
     1.0000   1.0000   1.0000   1.0000   1.0000   1.0000   1.0000   1.0000
     1.0000   1.0000

          k = 0.0000-0.5774 0.1229 ( 14716 PWs)   bands (ev):

    -4.4397  -4.3116  -2.8905  -2.8387  -2.7866  -2.7346  -2.6918  -2.6347
    -2.5997  -2.5746  -1.3681  -0.9138   3.9857   4.9423   7.0717   8.0359
     8.8246   9.4342

     occupation numbers 
     1.0000   1.0000   1.0000   1.0000   1.0000   1.0000   1.0000   1.0000
     1.0000   1.0000   1.0000   1.0000   1.0000   1.0000   1.0000   1.0000
     1.0000   1.0000

          k = 0.0000-0.5774 0.1844 ( 14714 PWs)   bands (ev):

    -4.4065  -4.3136  -2.8952  -2.8263  -2.8175  -2.7091  -2.7079  -2.6277
    -2.5985  -2.5820  -1.3206  -0.9869   3.8978   4.5984   7.6522   8.2073
     9.0407   9.2186

     occupation numbers 
     1.0000   1.0000   1.0000   1.0000   1.0000   1.0000   1.0000   1.0000
     1.0000   1.0000   1.0000   1.0000   1.0000   1.0000   1.0000   1.0000
     1.0000   1.0000

          k = 0.0000-0.5774 0.2459 ( 14712 PWs)   bands (ev):

    -4.3716  -4.3228  -2.8938  -2.8596  -2.7908  -2.7331  -2.6784  -2.6339
    -2.5965  -2.5885  -1.2534  -1.0765   3.9136   4.2837   8.2463   8.4305
     8.9603   9.0330

     occupation numbers 
     1.0000   1.0000   1.0000   1.0000   1.0000   1.0000   1.0000   1.0000
     1.0000   1.0000   1.0000   1.0000   1.0000   1.0000   1.0000   1.0000
     1.0000   1.0000

          k = 0.0000-0.5774-0.3073 ( 14748 PWs)   bands (ev):

    -4.3423  -4.3423  -2.8825  -2.8825  -2.7615  -2.7615  -2.6520  -2.6520
    -2.5933  -2.5933  -1.1694  -1.1694   4.0461   4.0461   8.6888   8.6888
     8.7447   8.7447

     occupation numbers 
     1.0000   1.0000   1.0000   1.0000   1.0000   1.0000   1.0000   1.0000
     1.0000   1.0000   1.0000   1.0000   1.0000   1.0000   1.0000   1.0000
     1.0000   1.0000

          k = 0.1000 0.1732 0.0000 ( 14755 PWs)   bands (ev):

    -5.0558  -4.4027  -2.9057  -2.8949  -2.8407  -2.8406  -2.7903  -2.7072
    -2.6878  -2.6286  -2.5828  -1.0896   4.0121   7.9499   8.5234   9.2346
    10.2668  10.2858

     occupation numbers 
     1.0000   1.0000   1.0000   1.0000   1.0000   1.0000   1.0000   1.0000
     1.0000   1.0000   1.0000   1.0000   1.0000   1.0000   1.0000   1.0000
     1.0000   1.0000

          k = 0.1000 0.1732 0.0615 ( 14759 PWs)   bands (ev):

    -5.0311  -4.4084  -2.9050  -2.8937  -2.8428  -2.8403  -2.7893  -2.6973
    -2.6853  -2.6312  -2.5843  -1.1884   4.1730   7.9939   8.4694   9.1866
    10.2301  10.2415

     occupation numbers 
     1.0000   1.0000   1.0000   1.0000   1.0000   1.0000   1.0000   1.0000
     1.0000   1.0000   1.0000   1.0000   1.0000   1.0000   1.0000   1.0000
     1.0000   1.0000

          k = 0.1000 0.1732 0.1229 ( 14756 PWs)   bands (ev):

    -4.9608  -4.4274  -2.9023  -2.8899  -2.8489  -2.8405  -2.7832  -2.6790
    -2.6672  -2.6384  -2.5877  -1.4412   4.6088   8.1251   8.2479   9.1434
    10.0854  10.1253

     occupation numbers 
     1.0000   1.0000   1.0000   1.0000   1.0000   1.0000   1.0000   1.0000
     1.0000   1.0000   1.0000   1.0000   1.0000   1.0000   1.0000   1.0000
     1.0000   1.0000

          k = 0.1000 0.1732 0.1844 ( 14770 PWs)   bands (ev):

    -4.8563  -4.4653  -2.8968  -2.8836  -2.8578  -2.8444  -2.7661  -2.6745
    -2.6459  -2.6232  -2.5795  -1.7595   5.2206   7.8260   8.3415   9.1991
     9.8095   9.9672

     occupation numbers 
     1.0000   1.0000   1.0000   1.0000   1.0000   1.0000   1.0000   1.0000
     1.0000   1.0000   1.0000   1.0000   1.0000   1.0000   1.0000   1.0000
     1.0000   1.0000

          k = 0.1000 0.1732 0.2459 ( 14784 PWs)   bands (ev):

    -4.7361  -4.5289  -2.8890  -2.8757  -2.8672  -2.8528  -2.7387  -2.6856
    -2.6416  -2.6186  -2.4885  -2.0668   5.9135   7.2642   8.6363   9.2661
     9.5155   9.7775

     occupation numbers 
     1.0000   1.0000   1.0000   1.0000   1.0000   1.0000   1.0000   1.0000
     1.0000   1.0000   1.0000   1.0000   1.0000   1.0000   1.0000   1.0000
     1.0000   1.0000

          k = 0.1000 0.1732-0.3073 ( 14782 PWs)   bands (ev):

    -4.6213  -4.6213  -2.8798  -2.8798  -2.8632  -2.8632  -2.7095  -2.7095
    -2.6297  -2.6297  -2.3160  -2.3160   6.6129   6.6129   8.9875   8.9875
     9.5867   9.5867

     occupation numbers 
     1.0000   1.0000   1.0000   1.0000   1.0000   1.0000   1.0000   1.0000
     1.0000   1.0000   1.0000   1.0000   1.0000   1.0000   1.0000   1.0000
     1.0000   1.0000

          k = 0.1000 0.2887 0.0000 ( 14749 PWs)   bands (ev):

    -4.7966  -4.3568  -2.8780  -2.8729  -2.8020  -2.7785  -2.7236  -2.6721
    -2.6649  -2.6085  -2.5200  -0.8693   4.4849   6.6620   7.4184   8.4754
     9.8583   9.8652

     occupation numbers 
     1.0000   1.0000   1.0000   1.0000   1.0000   1.0000   1.0000   1.0000
     1.0000   1.0000   1.0000   1.0000   1.0000   1.0000   1.0000   1.0000
     1.0000   1.0000

          k = 0.1000 0.2887 0.0615 ( 14742 PWs)   bands (ev):

    -4.7777  -4.3595  -2.8758  -2.8732  -2.8068  -2.7823  -2.7184  -2.6791
    -2.6589  -2.6077  -2.5057  -0.9526   4.5863   6.7346   7.3610   8.4663
     9.8006   9.8828

     occupation numbers 
     1.0000   1.0000   1.0000   1.0000   1.0000   1.0000   1.0000   1.0000
     1.0000   1.0000   1.0000   1.0000   1.0000   1.0000   1.0000   1.0000
     1.0000   1.0000

          k = 0.1000 0.2887 0.1229 ( 14742 PWs)   bands (ev):

    -4.7248  -4.3690  -2.8756  -2.8667  -2.8174  -2.7898  -2.7128  -2.6898
    -2.6505  -2.6074  -2.4568  -1.1718   4.8538   6.8859   7.2554   8.4877
     9.6604   9.8433

     occupation numbers 
     1.0000   1.0000   1.0000   1.0000   1.0000   1.0000   1.0000   1.0000
     1.0000   1.0000   1.0000   1.0000   1.0000   1.0000   1.0000   1.0000
     1.0000   1.0000

          k = 0.1000 0.2887 0.1844 ( 14744 PWs)   bands (ev):

    -4.6483  -4.3900  -2.8738  -2.8549  -2.8290  -2.7992  -2.7139  -2.7009
    -2.6414  -2.6101  -2.3632  -1.4604   5.2112   6.7291   7.5094   8.5878
     9.4454   9.6529

     occupation numbers 
     1.0000   1.0000   1.0000   1.0000   1.0000   1.0000   1.0000   1.0000
     1.0000   1.0000   1.0000   1.0000   1.0000   1.0000   1.0000   1.0000
     1.0000   1.0000

          k = 0.1000 0.2887 0.2459 ( 14748 PWs)   bands (ev):

    -4.5637  -4.4280  -2.8669  -2.8450  -2.8367  -2.8106  -2.7172  -2.7106
    -2.6323  -2.6158  -2.2175  -1.7552   5.5992   6.3791   8.0205   8.7456
     9.1484   9.3320

     occupation numbers 
     1.0000   1.0000   1.0000   1.0000   1.0000   1.0000   1.0000   1.0000
     1.0000   1.0000   1.0000   1.0000   1.0000   1.0000   1.0000   1.0000
     1.0000   1.0000

          k = 0.1000 0.2887-0.3073 ( 14754 PWs)   bands (ev):

    -4.4867  -4.4867  -2.8557  -2.8557  -2.8240  -2.8240  -2.7167  -2.7167
    -2.6234  -2.6234  -2.0141  -2.0141   5.9926   5.9926   8.5749   8.5749
     9.0585   9.0585

     occupation numbers 
     1.0000   1.0000   1.0000   1.0000   1.0000   1.0000   1.0000   1.0000
     1.0000   1.0000   1.0000   1.0000   1.0000   1.0000   1.0000   1.0000
     1.0000   1.0000

          k = 0.1000 0.4041 0.0000 ( 14738 PWs)   bands (ev):

    -4.5762  -4.3264  -2.8799  -2.8536  -2.7616  -2.7296  -2.7189  -2.6822
    -2.6354  -2.5842  -2.0777  -0.6820   4.7353   5.7858   6.5027   7.7958
     9.2157   9.4923

     occupation numbers 
     1.0000   1.0000   1.0000   1.0000   1.0000   1.0000   1.0000   1.0000
     1.0000   1.0000   1.0000   1.0000   1.0000   1.0000   1.0000   1.0000
     1.0000   1.0000

          k = 0.1000 0.4041 0.0615 ( 14724 PWs)   bands (ev):

    -4.5639  -4.3267  -2.8767  -2.8550  -2.7708  -2.7274  -2.7203  -2.6801
    -2.6323  -2.5873  -2.0592  -0.7380   4.6850   5.8806   6.5129   7.8191
     9.2694   9.4496

     occupation numbers 
     1.0000   1.0000   1.0000   1.0000   1.0000   1.0000   1.0000   1.0000
     1.0000   1.0000   1.0000   1.0000   1.0000   1.0000   1.0000   1.0000
     1.0000   1.0000

          k = 0.1000 0.4041 0.1229 ( 14735 PWs)   bands (ev):

    -4.5297  -4.3288  -2.8720  -2.8532  -2.7901  -2.7346  -2.7159  -2.6757
    -2.6262  -2.5946  -2.0022  -0.8920   4.6280   5.8464   6.7817   7.9098
     9.2281   9.4498

     occupation numbers 
     1.0000   1.0000   1.0000   1.0000   1.0000   1.0000   1.0000   1.0000
     1.0000   1.0000   1.0000   1.0000   1.0000   1.0000   1.0000   1.0000
     1.0000   1.0000

          k = 0.1000 0.4041 0.1844 ( 14733 PWs)   bands (ev):

    -4.4816  -4.3365  -2.8724  -2.8400  -2.8112  -2.7472  -2.7104  -2.6744
    -2.6212  -2.6012  -1.9030  -1.1082   4.6550   5.5859   7.3250   8.0910
     9.0007   9.4481

     occupation numbers 
     1.0000   1.0000   1.0000   1.0000   1.0000   1.0000   1.0000   1.0000
     1.0000   1.0000   1.0000   1.0000   1.0000   1.0000   1.0000   1.0000
     1.0000   1.0000

          k = 0.1000 0.4041 0.2459 ( 14735 PWs)   bands (ev):

    -4.4302  -4.3544  -2.8696  -2.8425  -2.8088  -2.7645  -2.7029  -2.6812
    -2.6161  -2.6055  -1.7584  -1.3455   4.7823   5.2778   7.8965   8.3738
     8.7226   9.2418

     occupation numbers 
     1.0000   1.0000   1.0000   1.0000   1.0000   1.0000   1.0000   1.0000
     1.0000   1.0000   1.0000   1.0000   1.0000   1.0000   1.0000   1.0000
     1.0000   1.0000

          k = 0.1000 0.4041-0.3073 ( 14744 PWs)   bands (ev):

    -4.3858  -4.3858  -2.8591  -2.8591  -2.7862  -2.7862  -2.6925  -2.6925
    -2.6103  -2.6103  -1.5694  -1.5694   4.9977   4.9977   8.3317   8.3317
     8.8508   8.8508

     occupation numbers 
     1.0000   1.0000   1.0000   1.0000   1.0000   1.0000   1.0000   1.0000
     1.0000   1.0000   1.0000   1.0000   1.0000   1.0000   1.0000   1.0000
     1.0000   1.0000

          k = 0.1000 0.5196 0.0000 ( 14726 PWs)   bands (ev):

    -4.4667  -4.3153  -2.8882  -2.8485  -2.7470  -2.7243  -2.6863  -2.6741
    -2.6128  -2.5770  -1.4929  -0.7432   4.3580   5.4827   6.4225   7.4940
     8.5277   9.2776

     occupation numbers 
     1.0000   1.0000   1.0000   1.0000   1.0000   1.0000   1.0000   1.0000
     1.0000   1.0000   1.0000   1.0000   1.0000   1.0000   1.0000   1.0000
     1.0000   1.0000

          k = 0.1000 0.5196 0.0615 ( 14733 PWs)   bands (ev):

    -4.4581  -4.3143  -2.8851  -2.8498  -2.7496  -2.7345  -2.6915  -2.6600
    -2.6120  -2.5802  -1.4804  -0.7660   4.2873   5.3766   6.5798   7.5476
     8.6388   9.2224

     occupation numbers 
     1.0000   1.0000   1.0000   1.0000   1.0000   1.0000   1.0000   1.0000
     1.0000   1.0000   1.0000   1.0000   1.0000   1.0000   1.0000   1.0000
     1.0000   1.0000

          k = 0.1000 0.5196 0.1229 ( 14724 PWs)   bands (ev):

    -4.4346  -4.3126  -2.8805  -2.8469  -2.7810  -2.7232  -2.7007  -2.6445
    -2.6100  -2.5879  -1.4424  -0.8316   4.1558   5.1065   6.9619   7.7234
     8.8393   9.1084

     occupation numbers 
     1.0000   1.0000   1.0000   1.0000   1.0000   1.0000   1.0000   1.0000
     1.0000   1.0000   1.0000   1.0000   1.0000   1.0000   1.0000   1.0000
     1.0000   1.0000

          k = 0.1000 0.5196 0.1844 ( 14727 PWs)   bands (ev):

    -4.4019  -4.3136  -2.8806  -2.8310  -2.8149  -2.7180  -2.7021  -2.6396
    -2.6081  -2.5952  -1.3781  -0.9319   4.0759   4.7775   7.3881   8.0551
     8.7233   9.1861

     occupation numbers 
     1.0000   1.0000   1.0000   1.0000   1.0000   1.0000   1.0000   1.0000
     1.0000   1.0000   1.0000   1.0000   1.0000   1.0000   1.0000   1.0000
     1.0000   1.0000

          k = 0.1000 0.5196 0.2459 ( 14736 PWs)   bands (ev):

    -4.3679  -4.3216  -2.8788  -2.8478  -2.8010  -2.7412  -2.6812  -2.6466
    -2.6061  -2.5991  -1.2881  -1.0525   4.0995   4.4712   7.7582   8.4051
     8.5374   9.1878

     occupation numbers 
     1.0000   1.0000   1.0000   1.0000   1.0000   1.0000   1.0000   1.0000
     1.0000   1.0000   1.0000   1.0000   1.0000   1.0000   1.0000   1.0000
     1.0000   1.0000

          k = 0.1000 0.5196-0.3073 ( 14728 PWs)   bands (ev):

    -4.3397  -4.3397  -2.8685  -2.8685  -2.7704  -2.7704  -2.6617  -2.6617
    -2.6027  -2.6027  -1.1763  -1.1763   4.2357   4.2357   8.0965   8.0965
     8.9449   8.9449

     occupation numbers 
     1.0000   1.0000   1.0000   1.0000   1.0000   1.0000   1.0000   1.0000
     1.0000   1.0000   1.0000   1.0000   1.0000   1.0000   1.0000   1.0000
     1.0000   1.0000

          k = 0.2000 0.3464 0.0000 ( 14733 PWs)   bands (ev):

    -4.5946  -4.3294  -2.8914  -2.8299  -2.7724  -2.7430  -2.7297  -2.6720
    -2.6416  -2.6008  -2.1476  -0.6758   4.8428   6.2817   6.2876   7.6194
     9.1828   9.3624

     occupation numbers 
     1.0000   1.0000   1.0000   1.0000   1.0000   1.0000   1.0000   1.0000
     1.0000   1.0000   1.0000   1.0000   1.0000   1.0000   1.0000   1.0000
     1.0000   1.0000

          k = 0.2000 0.3464 0.0615 ( 14736 PWs)   bands (ev):

    -4.5816  -4.3298  -2.8870  -2.8336  -2.7751  -2.7565  -2.7126  -2.6811
    -2.6346  -2.6051  -2.1287  -0.7375   4.8311   6.2360   6.4566   7.5893
     9.1207   9.4254

     occupation numbers 
     1.0000   1.0000   1.0000   1.0000   1.0000   1.0000   1.0000   1.0000
     1.0000   1.0000   1.0000   1.0000   1.0000   1.0000   1.0000   1.0000
     1.0000   1.0000

          k = 0.2000 0.3464 0.1229 ( 14737 PWs)   bands (ev):

    -4.5455  -4.3323  -2.8743  -2.8418  -2.7832  -2.7693  -2.6969  -2.6947
    -2.6238  -2.6146  -2.0704  -0.9052   4.8382   6.0886   6.8965   7.5695
     8.9480   9.5275

     occupation numbers 
     1.0000   1.0000   1.0000   1.0000   1.0000   1.0000   1.0000   1.0000
     1.0000   1.0000   1.0000   1.0000   1.0000   1.0000   1.0000   1.0000
     1.0000   1.0000

          k = 0.2000 0.3464 0.1844 ( 14728 PWs)   bands (ev):

    -4.4946  -4.3407  -2.8557  -2.8477  -2.7961  -2.7787  -2.7106  -2.6916
    -2.6191  -2.6154  -1.9689  -1.1377   4.9140   5.8482   7.4895   7.6466
     8.7007   9.5091

     occupation numbers 
     1.0000   1.0000   1.0000   1.0000   1.0000   1.0000   1.0000   1.0000
     1.0000   1.0000   1.0000   1.0000   1.0000   1.0000   1.0000   1.0000
     1.0000   1.0000

          k = 0.2000 0.3464 0.2459 ( 14740 PWs)   bands (ev):

    -4.4402  -4.3598  -2.8467  -2.8378  -2.8081  -2.7884  -2.7176  -2.7034
    -2.6153  -2.6111  -1.8201  -1.3893   5.0697   5.5659   7.8251   8.0916
     8.4623   9.2673

     occupation numbers 
     1.0000   1.0000   1.0000   1.0000   1.0000   1.0000   1.0000   1.0000
     1.0000   1.0000   1.0000   1.0000   1.0000   1.0000   1.0000   1.0000
     1.0000   1.0000

          k = 0.2000 0.3464-0.3073 ( 14732 PWs)   bands (ev):

    -4.3932  -4.3932  -2.8390  -2.8390  -2.8015  -2.8015  -2.7151  -2.7151
    -2.6113  -2.6113  -1.6240  -1.6240   5.2944   5.2944   8.0650   8.0650
     8.8117   8.8117

     occupation numbers 
     1.0000   1.0000   1.0000   1.0000   1.0000   1.0000   1.0000   1.0000
     1.0000   1.0000   1.0000   1.0000   1.0000   1.0000   1.0000   1.0000
     1.0000   1.0000

          k = 0.2000 0.4619 0.0000 ( 14733 PWs)   bands (ev):

    -4.4572  -4.3188  -2.9080  -2.8052  -2.7337  -2.7266  -2.7115  -2.6831
    -2.6276  -2.5981  -1.5908  -0.6140   4.7852   5.5660   6.5097   6.8220
     8.6395   8.7165

     occupation numbers 
     1.0000   1.0000   1.0000   1.0000   1.0000   1.0000   1.0000   1.0000
     1.0000   1.0000   1.0000   1.0000   1.0000   1.0000   1.0000   1.0000
     1.0000   1.0000

          k = 0.2000 0.4619 0.0615 ( 14734 PWs)   bands (ev):

    -4.4488  -4.3175  -2.9025  -2.8109  -2.7469  -2.7240  -2.7070  -2.6812
    -2.6237  -2.6029  -1.5746  -0.6457   4.7052   5.5107   6.5939   6.9174
     8.5762   8.8177

     occupation numbers 
     1.0000   1.0000   1.0000   1.0000   1.0000   1.0000   1.0000   1.0000
     1.0000   1.0000   1.0000   1.0000   1.0000   1.0000   1.0000   1.0000
     1.0000   1.0000

          k = 0.2000 0.4619 0.1229 ( 14744 PWs)   bands (ev):

    -4.4257  -4.3147  -2.8868  -2.8233  -2.7678  -2.7301  -2.7001  -2.6748
    -2.6184  -2.6120  -1.5259  -0.7358   4.5632   5.3369   6.6885   7.3236
     8.3769   9.0569

     occupation numbers 
     1.0000   1.0000   1.0000   1.0000   1.0000   1.0000   1.0000   1.0000
     1.0000   1.0000   1.0000   1.0000   1.0000   1.0000   1.0000   1.0000
     1.0000   1.0000

          k = 0.2000 0.4619 0.1844 ( 14738 PWs)   bands (ev):

    -4.3940  -4.3140  -2.8638  -2.8334  -2.7910  -2.7401  -2.6984  -2.6734
    -2.6231  -2.6079  -1.4438  -0.8702   4.4789   5.0838   6.8407   7.8574
     8.1282   9.2517

     occupation numbers 
     1.0000   1.0000   1.0000   1.0000   1.0000   1.0000   1.0000   1.0000
     1.0000   1.0000   1.0000   1.0000   1.0000   1.0000   1.0000   1.0000
     1.0000   1.0000

          k = 0.2000 0.4619 0.2459 ( 14728 PWs)   bands (ev):

    -4.3615  -4.3197  -2.8464  -2.8326  -2.8043  -2.7579  -2.6971  -2.6835
    -2.6176  -2.6063  -1.3292  -1.0278   4.4965   4.8254   7.0793   7.7130
     8.5232   9.2517

     occupation numbers 
     1.0000   1.0000   1.0000   1.0000   1.0000   1.0000   1.0000   1.0000
     1.0000   1.0000   1.0000   1.0000   1.0000   1.0000   1.0000   1.0000
     1.0000   1.0000

          k = 0.2000 0.4619-0.3073 ( 14732 PWs)   bands (ev):

    -4.3355  -4.3355  -2.8386  -2.8386  -2.7844  -2.7844  -2.6927  -2.6927
    -2.6100  -2.6100  -1.1868  -1.1868   4.6182   4.6182   7.3815   7.3815
     8.9930   8.9930

     occupation numbers 
     1.0000   1.0000   1.0000   1.0000   1.0000   1.0000   1.0000   1.0000
     1.0000   1.0000   1.0000   1.0000   1.0000   1.0000   1.0000   1.0000
     1.0000   1.0000

          k = 0.2000 0.5774 0.0000 ( 14732 PWs)   bands (ev):

    -4.4087  -4.3201  -2.9149  -2.8015  -2.7208  -2.7203  -2.6929  -2.6814
    -2.6324  -2.5962  -1.1828  -0.7458   4.5985   5.4682   6.2171   7.1047
     8.1926   8.4929

     occupation numbers 
     1.0000   1.0000   1.0000   1.0000   1.0000   1.0000   1.0000   1.0000
     1.0000   1.0000   1.0000   1.0000   1.0000   1.0000   1.0000   1.0000
     1.0000   1.0000

          k = 0.2000 0.5774 0.0615 ( 14736 PWs)   bands (ev):

    -4.4021  -4.3179  -2.9090  -2.8071  -2.7361  -2.7147  -2.7016  -2.6643
    -2.6319  -2.6013  -1.1740  -0.7567   4.5316   5.3513   6.2416   7.2821
     8.2754   8.4706

     occupation numbers 
     1.0000   1.0000   1.0000   1.0000   1.0000   1.0000   1.0000   1.0000
     1.0000   1.0000   1.0000   1.0000   1.0000   1.0000   1.0000   1.0000
     1.0000   1.0000

          k = 0.2000 0.5774 0.1229 ( 14741 PWs)   bands (ev):

    -4.3841  -4.3127  -2.8922  -2.8188  -2.7665  -2.7096  -2.7021  -2.6477
    -2.6302  -2.6134  -1.1476  -0.7889   4.3897   5.0765   6.3427   7.7141
     8.1437   8.7068

     occupation numbers 
     1.0000   1.0000   1.0000   1.0000   1.0000   1.0000   1.0000   1.0000
     1.0000   1.0000   1.0000   1.0000   1.0000   1.0000   1.0000   1.0000
     1.0000   1.0000

          k = 0.2000 0.5774 0.1844 ( 14729 PWs)   bands (ev):

    -4.3597  -4.3080  -2.8680  -2.8270  -2.7974  -2.7240  -2.6886  -2.6468
    -2.6273  -2.6200  -1.1043  -0.8403   4.2717   4.7659   6.5346   7.8411
     8.2436   9.0209

     occupation numbers 
     1.0000   1.0000   1.0000   1.0000   1.0000   1.0000   1.0000   1.0000
     1.0000   1.0000   1.0000   1.0000   1.0000   1.0000   1.0000   1.0000
     1.0000   1.0000

          k = 0.2000 0.5774 0.2459 ( 14725 PWs)   bands (ev):

    -4.3355  -4.3084  -2.8497  -2.8229  -2.8157  -2.7494  -2.6772  -2.6576
    -2.6233  -2.6187  -1.0460  -0.9058   4.2395   4.4982   6.8038   7.4872
     8.7406   9.1810

     occupation numbers 
     1.0000   1.0000   1.0000   1.0000   1.0000   1.0000   1.0000   1.0000
     1.0000   1.0000   1.0000   1.0000   1.0000   1.0000   1.0000   1.0000
     1.0000   1.0000

          k = 0.2000 0.5774-0.3073 ( 14728 PWs)   bands (ev):

    -4.3173  -4.3173  -2.8397  -2.8397  -2.7832  -2.7832  -2.6676  -2.6676
    -2.6197  -2.6197  -0.9774  -0.9774   4.3158   4.3158   7.1300   7.1300
     9.0845   9.0845

     occupation numbers 
     1.0000   1.0000   1.0000   1.0000   1.0000   1.0000   1.0000   1.0000
     1.0000   1.0000   1.0000   1.0000   1.0000   1.0000   1.0000   1.0000
     1.0000   1.0000

          k = 0.3000 0.5196 0.0000 ( 14748 PWs)   bands (ev):

    -4.3784  -4.3300  -2.9268  -2.7517  -2.7207  -2.7177  -2.7040  -2.6913
    -2.6465  -2.6076  -1.0885  -0.7080   5.0930   5.2181   5.8161   7.2412
     8.0438   8.0659

     occupation numbers 
     1.0000   1.0000   1.0000   1.0000   1.0000   1.0000   1.0000   1.0000
     1.0000   1.0000   1.0000   1.0000   1.0000   1.0000   1.0000   1.0000
     1.0000   1.0000

          k = 0.3000 0.5196 0.0615 ( 14755 PWs)   bands (ev):

    -4.3729  -4.3270  -2.9205  -2.7642  -2.7354  -2.7175  -2.6934  -2.6832
    -2.6442  -2.6140  -1.0800  -0.7168   4.9879   5.1803   5.7875   7.4229
     7.9600   8.2137

     occupation numbers 
     1.0000   1.0000   1.0000   1.0000   1.0000   1.0000   1.0000   1.0000
     1.0000   1.0000   1.0000   1.0000   1.0000   1.0000   1.0000   1.0000
     1.0000   1.0000

          k = 0.3000 0.5196 0.1229 ( 14754 PWs)   bands (ev):

    -4.3581  -4.3193  -2.9021  -2.7857  -2.7607  -2.7205  -2.6761  -2.6755
    -2.6377  -2.6302  -1.0548  -0.7432   4.7711   5.0279   5.8200   7.6944
     7.8926   8.5584

     occupation numbers 
     1.0000   1.0000   1.0000   1.0000   1.0000   1.0000   1.0000   1.0000
     1.0000   1.0000   1.0000   1.0000   1.0000   1.0000   1.0000   1.0000
     1.0000   1.0000

          k = 0.3000 0.5196 0.1844 ( 14746 PWs)   bands (ev):

    -4.3385  -4.3105  -2.8733  -2.8046  -2.7852  -2.7310  -2.6746  -2.6667
    -2.6426  -2.6307  -1.0143  -0.7854   4.5774   4.8004   5.9927   7.3747
     8.3971   8.9228

     occupation numbers 
     1.0000   1.0000   1.0000   1.0000   1.0000   1.0000   1.0000   1.0000
     1.0000   1.0000   1.0000   1.0000   1.0000   1.0000   1.0000   1.0000
     1.0000   1.0000

          k = 0.3000 0.5196 0.2459 ( 14734 PWs)   bands (ev):

    -4.3202  -4.3056  -2.8378  -2.8161  -2.8032  -2.7560  -2.6756  -2.6731
    -2.6363  -2.6275  -0.9615  -0.8401   4.4737   4.5992   6.2689   6.9938
     8.8569   9.1510

     occupation numbers 
     1.0000   1.0000   1.0000   1.0000   1.0000   1.0000   1.0000   1.0000
     1.0000   1.0000   1.0000   1.0000   1.0000   1.0000   1.0000   1.0000
     1.0000   1.0000

          k = 0.3000 0.5196-0.3073 ( 14744 PWs)   bands (ev):

    -4.3084  -4.3084  -2.8187  -2.8187  -2.7917  -2.7917  -2.6760  -2.6760
    -2.6295  -2.6295  -0.9012  -0.9012   4.4820   4.4820   6.6129   6.6129
     9.1346   9.1346

     occupation numbers 
     1.0000   1.0000   1.0000   1.0000   1.0000   1.0000   1.0000   1.0000
     1.0000   1.0000   1.0000   1.0000   1.0000   1.0000   1.0000   1.0000
     1.0000   1.0000

     highest occupied level (ev):    10.6187

!    total energy              =    -347.51875084 Ry
     estimated scf accuracy    <       0.00000097 Ry

     The total energy is the sum of the following terms:
     one-electron contribution =    -105.66645077 Ry
     hartree contribution      =      87.58238302 Ry
     xc contribution           =     -96.27785620 Ry
     ewald contribution        =    -233.15682690 Ry

     convergence has been achieved in  15 iterations

     Writing output data file ../tmp/GaN_exc1.save/
 
     init_run     :      2.63s CPU      2.74s WALL (       1 calls)
     electrons    :     54.73s CPU     55.33s WALL (       1 calls)

     Called by init_run:
     wfcinit      :      1.74s CPU      1.78s WALL (       1 calls)
     wfcinit:atom :      0.04s CPU      0.04s WALL (      84 calls)
     wfcinit:wfcr :      1.44s CPU      1.46s WALL (      84 calls)
     potinit      :      0.16s CPU      0.16s WALL (       1 calls)
     hinit0       :      0.32s CPU      0.38s WALL (       1 calls)

     Called by electrons:
     c_bands      :     46.78s CPU     47.26s WALL (      15 calls)
     sum_band     :      7.53s CPU      7.63s WALL (      15 calls)
     v_of_rho     :      0.34s CPU      0.36s WALL (      16 calls)
     v_h          :      0.01s CPU      0.01s WALL (      16 calls)
     v_xc         :      0.33s CPU      0.34s WALL (      16 calls)
     mix_rho      :      0.08s CPU      0.09s WALL (      15 calls)

     Called by c_bands:
     init_us_2    :      2.18s CPU      2.23s WALL (    2604 calls)
     cegterg      :     39.60s CPU     40.03s WALL (    1260 calls)

     Called by sum_band:
     sum_band:wei :      0.00s CPU      0.00s WALL (      15 calls)
     sum_band:loo :      7.48s CPU      7.57s WALL (      15 calls)
     sum_band:buf :      0.18s CPU      0.18s WALL (    1260 calls)
     sum_band:ini :      1.08s CPU      1.10s WALL (    1260 calls)

     Called by *egterg:
     cdiaghg      :      2.72s CPU      2.75s WALL (    3969 calls)
     cegterg:over :      1.98s CPU      1.99s WALL (    2709 calls)
     cegterg:upda :      1.10s CPU      1.11s WALL (    2709 calls)
     cegterg:last :      1.74s CPU      1.75s WALL (    2200 calls)
     cdiaghg:chol :      0.31s CPU      0.31s WALL (    3969 calls)
     cdiaghg:inve :      0.07s CPU      0.07s WALL (    3969 calls)
     cdiaghg:para :      0.30s CPU      0.30s WALL (    7938 calls)
     h_psi        :     31.98s CPU     32.37s WALL (    4053 calls)
     g_psi        :      0.26s CPU      0.26s WALL (    2709 calls)

     Called by h_psi:
     h_psi:calbec :      2.04s CPU      2.06s WALL (    4053 calls)
     vloc_psi     :     26.97s CPU     27.32s WALL (    4053 calls)
     add_vuspsi   :      2.55s CPU      2.57s WALL (    4053 calls)

     General routines
     calbec       :      2.03s CPU      2.05s WALL (    4053 calls)
     fft          :      0.14s CPU      0.20s WALL (     160 calls)
     ffts         :      0.01s CPU      0.01s WALL (      15 calls)
     fftw         :     26.38s CPU     26.70s WALL (  135270 calls)
 
     Parallel routines
 
     PWSCF        :     57.62s CPU     58.51s WALL

 
   This run was terminated on:  10:41:29  28Mar2023            

=------------------------------------------------------------------------------=
   JOB DONE.
=------------------------------------------------------------------------------=
