
     Program PWSCF v.6.8 starts on 27Mar2023 at 19:55:36 

     This program is part of the open-source Quantum ESPRESSO suite
     for quantum simulation of materials; please cite
         "P. Giannozzi et al., J. Phys.:Condens. Matter 21 395502 (2009);
         "P. Giannozzi et al., J. Phys.:Condens. Matter 29 465901 (2017);
         "P. Giannozzi et al., J. Chem. Phys. 152 154105 (2020);
          URL http://www.quantum-espresso.org", 
     in publications or presentations arising from this work. More details at
     http://www.quantum-espresso.org/quote

     Parallel version (MPI & OpenMP), running on       6 processor cores
     Number of MPI processes:                 6
     Threads/MPI process:                     1

     MPI processes distributed on     1 nodes
     R & G space division:  proc/nbgrp/npool/nimage =       6
     16452 MiB available memory on the printing compute node when the environment starts
 
     Waiting for input...
     Reading input from standard input
Warning: card &CELL ignored
Warning: card / ignored

     Current dimensions of program PWSCF are:
     Max number of different atomic species (ntypx) = 10
     Max number of k-points (npk) =  40000
     Max angular momentum in pseudopotentials (lmaxx) =  4

     Subspace diagonalization in iterative solution of the eigenvalue problem:
     one sub-group per band group will be used
     scalapack distributed-memory algorithm (size of sub-group:  2*  2 procs)

 
     Parallelization info
     --------------------
     sticks:   dense  smooth     PW     G-vecs:    dense   smooth      PW
     Min         332     332     93                19644    19644    2871
     Max         333     333     94                19651    19651    2876
     Sum        1993    1993    559               117881   117881   17237
 
     Using Slab Decomposition
 


     bravais-lattice index     =            4
     lattice parameter (alat)  =       6.0282  a.u.
     unit-cell volume          =     308.6570 (a.u.)^3
     number of atoms/cell      =            4
     number of atomic types    =            2
     number of electrons       =        36.00
     number of Kohn-Sham states=           18
     kinetic-energy cutoff     =     200.0000  Ry
     charge density cutoff     =     800.0000  Ry
     scf convergence threshold =      1.0E-06
     mixing beta               =       0.7000
     number of iterations used =            8  plain     mixing
     Exchange-correlation= PBE
                           (   1   4   3   4   0   0   0)

     celldm(1)=   6.028226  celldm(2)=   0.000000  celldm(3)=   1.626960
     celldm(4)=   0.000000  celldm(5)=   0.000000  celldm(6)=   0.000000

     crystal axes: (cart. coord. in units of alat)
               a(1) = (   1.000000   0.000000   0.000000 )  
               a(2) = (  -0.500000   0.866025   0.000000 )  
               a(3) = (   0.000000   0.000000   1.626960 )  

     reciprocal axes: (cart. coord. in units 2 pi/alat)
               b(1) = (  1.000000  0.577350  0.000000 )  
               b(2) = (  0.000000  1.154701  0.000000 )  
               b(3) = (  0.000000  0.000000  0.614643 )  


     PseudoPot. # 1 for Ga read from file:
     ../pseudo/Ga_ONCV_PBE_sr.upf
     MD5 check sum: e3654b1fbeb096be7359f640ef9d98d7
     Pseudo is Norm-conserving + core correction, Zval = 13.0
     Generated using ONCVPSP code by D. R. Hamann
     Using radial grid of 1902 points,  6 beta functions with: 
                l(1) =   0
                l(2) =   0
                l(3) =   1
                l(4) =   1
                l(5) =   2
                l(6) =   2

     PseudoPot. # 2 for N  read from file:
     ../pseudo/N_ONCV_PBE_sr.upf
     MD5 check sum: 18c6af81dac9c5a2d6d52ed11cf7bfee
     Pseudo is Norm-conserving + core correction, Zval =  5.0
     Generated using ONCVPSP code by D. R. Hamann
     Using radial grid of 1058 points,  4 beta functions with: 
                l(1) =   0
                l(2) =   0
                l(3) =   1
                l(4) =   1

     atomic species   valence    mass     pseudopotential
        Ga            13.00    69.72300     Ga( 1.00)
        N              5.00    14.00700     N ( 1.00)

     12 Sym. Ops. (no inversion) found ( 6 have fractional translation)


                                    s                        frac. trans.

      isym =  1     identity                                     

 cryst.   s( 1) = (     1          0          0      )
                  (     0          1          0      )
                  (     0          0          1      )

 cart.    s( 1) = (  1.0000000  0.0000000  0.0000000 )
                  (  0.0000000  1.0000000  0.0000000 )
                  (  0.0000000  0.0000000  1.0000000 )


      isym =  2     180 deg rotation - cart. axis [0,0,1]        

 cryst.   s( 2) = (    -1          0          0      )    f =(  0.0000000 )
                  (     0         -1          0      )       (  0.0000000 )
                  (     0          0          1      )       ( -0.5000000 )

 cart.    s( 2) = ( -1.0000000  0.0000000  0.0000000 )    f =(  0.0000000 )
                  (  0.0000000 -1.0000000  0.0000000 )       (  0.0000000 )
                  (  0.0000000  0.0000000  1.0000000 )       ( -0.8134800 )


      isym =  3      60 deg rotation - cryst. axis [0,0,1]       

 cryst.   s( 3) = (     1          1          0      )    f =(  0.0000000 )
                  (    -1          0          0      )       (  0.0000000 )
                  (     0          0          1      )       ( -0.5000000 )

 cart.    s( 3) = (  0.5000000 -0.8660254  0.0000000 )    f =(  0.0000000 )
                  (  0.8660254  0.5000000  0.0000000 )       (  0.0000000 )
                  (  0.0000000  0.0000000  1.0000000 )       ( -0.8134800 )


      isym =  4      60 deg rotation - cryst. axis [0,0,-1]      

 cryst.   s( 4) = (     0         -1          0      )    f =(  0.0000000 )
                  (     1          1          0      )       (  0.0000000 )
                  (     0          0          1      )       ( -0.5000000 )

 cart.    s( 4) = (  0.5000000  0.8660254  0.0000000 )    f =(  0.0000000 )
                  ( -0.8660254  0.5000000  0.0000000 )       (  0.0000000 )
                  (  0.0000000  0.0000000  1.0000000 )       ( -0.8134800 )


      isym =  5     120 deg rotation - cryst. axis [0,0,1]       

 cryst.   s( 5) = (     0          1          0      )
                  (    -1         -1          0      )
                  (     0          0          1      )

 cart.    s( 5) = ( -0.5000000 -0.8660254  0.0000000 )
                  (  0.8660254 -0.5000000  0.0000000 )
                  (  0.0000000  0.0000000  1.0000000 )


      isym =  6     120 deg rotation - cryst. axis [0,0,-1]      

 cryst.   s( 6) = (    -1         -1          0      )
                  (     1          0          0      )
                  (     0          0          1      )

 cart.    s( 6) = ( -0.5000000  0.8660254  0.0000000 )
                  ( -0.8660254 -0.5000000  0.0000000 )
                  (  0.0000000  0.0000000  1.0000000 )


      isym =  7     inv. 180 deg rotation - cart. axis [0,1,0]   

 cryst.   s( 7) = (     1          0          0      )    f =(  0.0000000 )
                  (    -1         -1          0      )       (  0.0000000 )
                  (     0          0          1      )       ( -0.5000000 )

 cart.    s( 7) = (  1.0000000  0.0000000  0.0000000 )    f =(  0.0000000 )
                  (  0.0000000 -1.0000000  0.0000000 )       (  0.0000000 )
                  (  0.0000000  0.0000000  1.0000000 )       ( -0.8134800 )


      isym =  8     inv. 180 deg rotation - cart. axis [1,0,0]   

 cryst.   s( 8) = (    -1          0          0      )
                  (     1          1          0      )
                  (     0          0          1      )

 cart.    s( 8) = ( -1.0000000  0.0000000  0.0000000 )
                  (  0.0000000  1.0000000  0.0000000 )
                  (  0.0000000  0.0000000  1.0000000 )


      isym =  9     inv. 180 deg rotation - cryst. axis [1,-1,0] 

 cryst.   s( 9) = (     0          1          0      )    f =(  0.0000000 )
                  (     1          0          0      )       (  0.0000000 )
                  (     0          0          1      )       ( -0.5000000 )

 cart.    s( 9) = ( -0.5000000  0.8660254  0.0000000 )    f =(  0.0000000 )
                  (  0.8660254  0.5000000  0.0000000 )       (  0.0000000 )
                  (  0.0000000  0.0000000  1.0000000 )       ( -0.8134800 )


      isym = 10     inv. 180 deg rotation - cryst. axis [2,1,0]  

 cryst.   s(10) = (    -1         -1          0      )    f =(  0.0000000 )
                  (     0          1          0      )       (  0.0000000 )
                  (     0          0          1      )       ( -0.5000000 )

 cart.    s(10) = ( -0.5000000 -0.8660254  0.0000000 )    f =(  0.0000000 )
                  ( -0.8660254  0.5000000  0.0000000 )       (  0.0000000 )
                  (  0.0000000  0.0000000  1.0000000 )       ( -0.8134800 )


      isym = 11     inv. 180 deg rotation - cryst. axis [0,1,0]  

 cryst.   s(11) = (     1          1          0      )
                  (     0         -1          0      )
                  (     0          0          1      )

 cart.    s(11) = (  0.5000000  0.8660254  0.0000000 )
                  (  0.8660254 -0.5000000  0.0000000 )
                  (  0.0000000  0.0000000  1.0000000 )


      isym = 12     inv. 180 deg rotation - cryst. axis [1,1,0]  

 cryst.   s(12) = (     0         -1          0      )
                  (    -1          0          0      )
                  (     0          0          1      )

 cart.    s(12) = (  0.5000000 -0.8660254  0.0000000 )
                  ( -0.8660254 -0.5000000  0.0000000 )
                  (  0.0000000  0.0000000  1.0000000 )


     point group C_6v (6mm) 
     there are  6 classes
     the character table:

       E     2C6   2C3   C2    3s_v  3s_d 
A_1    1.00  1.00  1.00  1.00  1.00  1.00
A_2    1.00  1.00  1.00  1.00 -1.00 -1.00
B_1    1.00 -1.00  1.00 -1.00  1.00 -1.00
B_2    1.00 -1.00  1.00 -1.00 -1.00  1.00
E_1    2.00  1.00 -1.00 -2.00  0.00  0.00
E_2    2.00 -1.00 -1.00  2.00  0.00  0.00

     the symmetry operations in each class and the name of the first element:

     E        1
          identity                                               
     2C6      3    4
           60 deg rotation - cryst. axis [0,0,1]                 
     2C3      5    6
          120 deg rotation - cryst. axis [0,0,1]                 
     C2       2
          180 deg rotation - cart. axis [0,0,1]                  
     3s_v     8   12   11
          inv. 180 deg rotation - cart. axis [1,0,0]             
     3s_d     7    9   10
          inv. 180 deg rotation - cart. axis [0,1,0]             

   Cartesian axes

     site n.     atom                  positions (alat units)
         1           Ga  tau(   1) = (   0.5000000   0.2886751   0.8119892  )
         2           Ga  tau(   2) = (   0.0000000   0.5773503   1.6254692  )
         3           N   tau(   3) = (   0.5000000   0.2886751   1.4250808  )
         4           N   tau(   4) = (   0.0000000   0.5773503   0.6116008  )

   Crystallographic axes

     site n.     atom                  positions (cryst. coord.)
         1           Ga  tau(   1) = (  0.6666667  0.3333333  0.4990837  )
         2           Ga  tau(   2) = (  0.3333333  0.6666667  0.9990837  )
         3           N   tau(   3) = (  0.6666667  0.3333333  0.8759163  )
         4           N   tau(   4) = (  0.3333333  0.6666667  0.3759163  )

     number of k points=   845
                       cart. coord. in units 2pi/alat
        k(    1) = (   0.0000000   0.0000000   0.0000000), wk =   0.0001280
        k(    2) = (   0.0000000   0.0000000   0.0245857), wk =   0.0002560
        k(    3) = (   0.0000000   0.0000000   0.0491715), wk =   0.0002560
        k(    4) = (   0.0000000   0.0000000   0.0737572), wk =   0.0002560
        k(    5) = (   0.0000000   0.0000000   0.0983429), wk =   0.0002560
        k(    6) = (   0.0000000   0.0000000   0.1229287), wk =   0.0002560
        k(    7) = (   0.0000000   0.0000000   0.1475144), wk =   0.0002560
        k(    8) = (   0.0000000   0.0000000   0.1721001), wk =   0.0002560
        k(    9) = (   0.0000000   0.0000000   0.1966858), wk =   0.0002560
        k(   10) = (   0.0000000   0.0000000   0.2212716), wk =   0.0002560
        k(   11) = (   0.0000000   0.0000000   0.2458573), wk =   0.0002560
        k(   12) = (   0.0000000   0.0000000   0.2704430), wk =   0.0002560
        k(   13) = (   0.0000000   0.0000000   0.2950288), wk =   0.0002560
        k(   14) = (   0.0000000   0.0461880   0.0000000), wk =   0.0007680
        k(   15) = (   0.0000000   0.0461880   0.0245857), wk =   0.0015360
        k(   16) = (   0.0000000   0.0461880   0.0491715), wk =   0.0015360
        k(   17) = (   0.0000000   0.0461880   0.0737572), wk =   0.0015360
        k(   18) = (   0.0000000   0.0461880   0.0983429), wk =   0.0015360
        k(   19) = (   0.0000000   0.0461880   0.1229287), wk =   0.0015360
        k(   20) = (   0.0000000   0.0461880   0.1475144), wk =   0.0015360
        k(   21) = (   0.0000000   0.0461880   0.1721001), wk =   0.0015360
        k(   22) = (   0.0000000   0.0461880   0.1966858), wk =   0.0015360
        k(   23) = (   0.0000000   0.0461880   0.2212716), wk =   0.0015360
        k(   24) = (   0.0000000   0.0461880   0.2458573), wk =   0.0015360
        k(   25) = (   0.0000000   0.0461880   0.2704430), wk =   0.0015360
        k(   26) = (   0.0000000   0.0461880   0.2950288), wk =   0.0015360
        k(   27) = (   0.0000000   0.0923760   0.0000000), wk =   0.0007680
        k(   28) = (   0.0000000   0.0923760   0.0245857), wk =   0.0015360
        k(   29) = (   0.0000000   0.0923760   0.0491715), wk =   0.0015360
        k(   30) = (   0.0000000   0.0923760   0.0737572), wk =   0.0015360
        k(   31) = (   0.0000000   0.0923760   0.0983429), wk =   0.0015360
        k(   32) = (   0.0000000   0.0923760   0.1229287), wk =   0.0015360
        k(   33) = (   0.0000000   0.0923760   0.1475144), wk =   0.0015360
        k(   34) = (   0.0000000   0.0923760   0.1721001), wk =   0.0015360
        k(   35) = (   0.0000000   0.0923760   0.1966858), wk =   0.0015360
        k(   36) = (   0.0000000   0.0923760   0.2212716), wk =   0.0015360
        k(   37) = (   0.0000000   0.0923760   0.2458573), wk =   0.0015360
        k(   38) = (   0.0000000   0.0923760   0.2704430), wk =   0.0015360
        k(   39) = (   0.0000000   0.0923760   0.2950288), wk =   0.0015360
        k(   40) = (   0.0000000   0.1385641   0.0000000), wk =   0.0007680
        k(   41) = (   0.0000000   0.1385641   0.0245857), wk =   0.0015360
        k(   42) = (   0.0000000   0.1385641   0.0491715), wk =   0.0015360
        k(   43) = (   0.0000000   0.1385641   0.0737572), wk =   0.0015360
        k(   44) = (   0.0000000   0.1385641   0.0983429), wk =   0.0015360
        k(   45) = (   0.0000000   0.1385641   0.1229287), wk =   0.0015360
        k(   46) = (   0.0000000   0.1385641   0.1475144), wk =   0.0015360
        k(   47) = (   0.0000000   0.1385641   0.1721001), wk =   0.0015360
        k(   48) = (   0.0000000   0.1385641   0.1966858), wk =   0.0015360
        k(   49) = (   0.0000000   0.1385641   0.2212716), wk =   0.0015360
        k(   50) = (   0.0000000   0.1385641   0.2458573), wk =   0.0015360
        k(   51) = (   0.0000000   0.1385641   0.2704430), wk =   0.0015360
        k(   52) = (   0.0000000   0.1385641   0.2950288), wk =   0.0015360
        k(   53) = (   0.0000000   0.1847521   0.0000000), wk =   0.0007680
        k(   54) = (   0.0000000   0.1847521   0.0245857), wk =   0.0015360
        k(   55) = (   0.0000000   0.1847521   0.0491715), wk =   0.0015360
        k(   56) = (   0.0000000   0.1847521   0.0737572), wk =   0.0015360
        k(   57) = (   0.0000000   0.1847521   0.0983429), wk =   0.0015360
        k(   58) = (   0.0000000   0.1847521   0.1229287), wk =   0.0015360
        k(   59) = (   0.0000000   0.1847521   0.1475144), wk =   0.0015360
        k(   60) = (   0.0000000   0.1847521   0.1721001), wk =   0.0015360
        k(   61) = (   0.0000000   0.1847521   0.1966858), wk =   0.0015360
        k(   62) = (   0.0000000   0.1847521   0.2212716), wk =   0.0015360
        k(   63) = (   0.0000000   0.1847521   0.2458573), wk =   0.0015360
        k(   64) = (   0.0000000   0.1847521   0.2704430), wk =   0.0015360
        k(   65) = (   0.0000000   0.1847521   0.2950288), wk =   0.0015360
        k(   66) = (   0.0000000   0.2309401   0.0000000), wk =   0.0007680
        k(   67) = (   0.0000000   0.2309401   0.0245857), wk =   0.0015360
        k(   68) = (   0.0000000   0.2309401   0.0491715), wk =   0.0015360
        k(   69) = (   0.0000000   0.2309401   0.0737572), wk =   0.0015360
        k(   70) = (   0.0000000   0.2309401   0.0983429), wk =   0.0015360
        k(   71) = (   0.0000000   0.2309401   0.1229287), wk =   0.0015360
        k(   72) = (   0.0000000   0.2309401   0.1475144), wk =   0.0015360
        k(   73) = (   0.0000000   0.2309401   0.1721001), wk =   0.0015360
        k(   74) = (   0.0000000   0.2309401   0.1966858), wk =   0.0015360
        k(   75) = (   0.0000000   0.2309401   0.2212716), wk =   0.0015360
        k(   76) = (   0.0000000   0.2309401   0.2458573), wk =   0.0015360
        k(   77) = (   0.0000000   0.2309401   0.2704430), wk =   0.0015360
        k(   78) = (   0.0000000   0.2309401   0.2950288), wk =   0.0015360
        k(   79) = (   0.0000000   0.2771281   0.0000000), wk =   0.0007680
        k(   80) = (   0.0000000   0.2771281   0.0245857), wk =   0.0015360
        k(   81) = (   0.0000000   0.2771281   0.0491715), wk =   0.0015360
        k(   82) = (   0.0000000   0.2771281   0.0737572), wk =   0.0015360
        k(   83) = (   0.0000000   0.2771281   0.0983429), wk =   0.0015360
        k(   84) = (   0.0000000   0.2771281   0.1229287), wk =   0.0015360
        k(   85) = (   0.0000000   0.2771281   0.1475144), wk =   0.0015360
        k(   86) = (   0.0000000   0.2771281   0.1721001), wk =   0.0015360
        k(   87) = (   0.0000000   0.2771281   0.1966858), wk =   0.0015360
        k(   88) = (   0.0000000   0.2771281   0.2212716), wk =   0.0015360
        k(   89) = (   0.0000000   0.2771281   0.2458573), wk =   0.0015360
        k(   90) = (   0.0000000   0.2771281   0.2704430), wk =   0.0015360
        k(   91) = (   0.0000000   0.2771281   0.2950288), wk =   0.0015360
        k(   92) = (   0.0000000   0.3233162   0.0000000), wk =   0.0007680
        k(   93) = (   0.0000000   0.3233162   0.0245857), wk =   0.0015360
        k(   94) = (   0.0000000   0.3233162   0.0491715), wk =   0.0015360
        k(   95) = (   0.0000000   0.3233162   0.0737572), wk =   0.0015360
        k(   96) = (   0.0000000   0.3233162   0.0983429), wk =   0.0015360
        k(   97) = (   0.0000000   0.3233162   0.1229287), wk =   0.0015360
        k(   98) = (   0.0000000   0.3233162   0.1475144), wk =   0.0015360
        k(   99) = (   0.0000000   0.3233162   0.1721001), wk =   0.0015360
        k(  100) = (   0.0000000   0.3233162   0.1966858), wk =   0.0015360
        k(  101) = (   0.0000000   0.3233162   0.2212716), wk =   0.0015360
        k(  102) = (   0.0000000   0.3233162   0.2458573), wk =   0.0015360
        k(  103) = (   0.0000000   0.3233162   0.2704430), wk =   0.0015360
        k(  104) = (   0.0000000   0.3233162   0.2950288), wk =   0.0015360
        k(  105) = (   0.0000000   0.3695042   0.0000000), wk =   0.0007680
        k(  106) = (   0.0000000   0.3695042   0.0245857), wk =   0.0015360
        k(  107) = (   0.0000000   0.3695042   0.0491715), wk =   0.0015360
        k(  108) = (   0.0000000   0.3695042   0.0737572), wk =   0.0015360
        k(  109) = (   0.0000000   0.3695042   0.0983429), wk =   0.0015360
        k(  110) = (   0.0000000   0.3695042   0.1229287), wk =   0.0015360
        k(  111) = (   0.0000000   0.3695042   0.1475144), wk =   0.0015360
        k(  112) = (   0.0000000   0.3695042   0.1721001), wk =   0.0015360
        k(  113) = (   0.0000000   0.3695042   0.1966858), wk =   0.0015360
        k(  114) = (   0.0000000   0.3695042   0.2212716), wk =   0.0015360
        k(  115) = (   0.0000000   0.3695042   0.2458573), wk =   0.0015360
        k(  116) = (   0.0000000   0.3695042   0.2704430), wk =   0.0015360
        k(  117) = (   0.0000000   0.3695042   0.2950288), wk =   0.0015360
        k(  118) = (   0.0000000   0.4156922   0.0000000), wk =   0.0007680
        k(  119) = (   0.0000000   0.4156922   0.0245857), wk =   0.0015360
        k(  120) = (   0.0000000   0.4156922   0.0491715), wk =   0.0015360
        k(  121) = (   0.0000000   0.4156922   0.0737572), wk =   0.0015360
        k(  122) = (   0.0000000   0.4156922   0.0983429), wk =   0.0015360
        k(  123) = (   0.0000000   0.4156922   0.1229287), wk =   0.0015360
        k(  124) = (   0.0000000   0.4156922   0.1475144), wk =   0.0015360
        k(  125) = (   0.0000000   0.4156922   0.1721001), wk =   0.0015360
        k(  126) = (   0.0000000   0.4156922   0.1966858), wk =   0.0015360
        k(  127) = (   0.0000000   0.4156922   0.2212716), wk =   0.0015360
        k(  128) = (   0.0000000   0.4156922   0.2458573), wk =   0.0015360
        k(  129) = (   0.0000000   0.4156922   0.2704430), wk =   0.0015360
        k(  130) = (   0.0000000   0.4156922   0.2950288), wk =   0.0015360
        k(  131) = (   0.0000000   0.4618802   0.0000000), wk =   0.0007680
        k(  132) = (   0.0000000   0.4618802   0.0245857), wk =   0.0015360
        k(  133) = (   0.0000000   0.4618802   0.0491715), wk =   0.0015360
        k(  134) = (   0.0000000   0.4618802   0.0737572), wk =   0.0015360
        k(  135) = (   0.0000000   0.4618802   0.0983429), wk =   0.0015360
        k(  136) = (   0.0000000   0.4618802   0.1229287), wk =   0.0015360
        k(  137) = (   0.0000000   0.4618802   0.1475144), wk =   0.0015360
        k(  138) = (   0.0000000   0.4618802   0.1721001), wk =   0.0015360
        k(  139) = (   0.0000000   0.4618802   0.1966858), wk =   0.0015360
        k(  140) = (   0.0000000   0.4618802   0.2212716), wk =   0.0015360
        k(  141) = (   0.0000000   0.4618802   0.2458573), wk =   0.0015360
        k(  142) = (   0.0000000   0.4618802   0.2704430), wk =   0.0015360
        k(  143) = (   0.0000000   0.4618802   0.2950288), wk =   0.0015360
        k(  144) = (   0.0000000   0.5080682   0.0000000), wk =   0.0007680
        k(  145) = (   0.0000000   0.5080682   0.0245857), wk =   0.0015360
        k(  146) = (   0.0000000   0.5080682   0.0491715), wk =   0.0015360
        k(  147) = (   0.0000000   0.5080682   0.0737572), wk =   0.0015360
        k(  148) = (   0.0000000   0.5080682   0.0983429), wk =   0.0015360
        k(  149) = (   0.0000000   0.5080682   0.1229287), wk =   0.0015360
        k(  150) = (   0.0000000   0.5080682   0.1475144), wk =   0.0015360
        k(  151) = (   0.0000000   0.5080682   0.1721001), wk =   0.0015360
        k(  152) = (   0.0000000   0.5080682   0.1966858), wk =   0.0015360
        k(  153) = (   0.0000000   0.5080682   0.2212716), wk =   0.0015360
        k(  154) = (   0.0000000   0.5080682   0.2458573), wk =   0.0015360
        k(  155) = (   0.0000000   0.5080682   0.2704430), wk =   0.0015360
        k(  156) = (   0.0000000   0.5080682   0.2950288), wk =   0.0015360
        k(  157) = (   0.0000000   0.5542563   0.0000000), wk =   0.0007680
        k(  158) = (   0.0000000   0.5542563   0.0245857), wk =   0.0015360
        k(  159) = (   0.0000000   0.5542563   0.0491715), wk =   0.0015360
        k(  160) = (   0.0000000   0.5542563   0.0737572), wk =   0.0015360
        k(  161) = (   0.0000000   0.5542563   0.0983429), wk =   0.0015360
        k(  162) = (   0.0000000   0.5542563   0.1229287), wk =   0.0015360
        k(  163) = (   0.0000000   0.5542563   0.1475144), wk =   0.0015360
        k(  164) = (   0.0000000   0.5542563   0.1721001), wk =   0.0015360
        k(  165) = (   0.0000000   0.5542563   0.1966858), wk =   0.0015360
        k(  166) = (   0.0000000   0.5542563   0.2212716), wk =   0.0015360
        k(  167) = (   0.0000000   0.5542563   0.2458573), wk =   0.0015360
        k(  168) = (   0.0000000   0.5542563   0.2704430), wk =   0.0015360
        k(  169) = (   0.0000000   0.5542563   0.2950288), wk =   0.0015360
        k(  170) = (   0.0400000   0.0692820   0.0000000), wk =   0.0007680
        k(  171) = (   0.0400000   0.0692820   0.0245857), wk =   0.0015360
        k(  172) = (   0.0400000   0.0692820   0.0491715), wk =   0.0015360
        k(  173) = (   0.0400000   0.0692820   0.0737572), wk =   0.0015360
        k(  174) = (   0.0400000   0.0692820   0.0983429), wk =   0.0015360
        k(  175) = (   0.0400000   0.0692820   0.1229287), wk =   0.0015360
        k(  176) = (   0.0400000   0.0692820   0.1475144), wk =   0.0015360
        k(  177) = (   0.0400000   0.0692820   0.1721001), wk =   0.0015360
        k(  178) = (   0.0400000   0.0692820   0.1966858), wk =   0.0015360
        k(  179) = (   0.0400000   0.0692820   0.2212716), wk =   0.0015360
        k(  180) = (   0.0400000   0.0692820   0.2458573), wk =   0.0015360
        k(  181) = (   0.0400000   0.0692820   0.2704430), wk =   0.0015360
        k(  182) = (   0.0400000   0.0692820   0.2950288), wk =   0.0015360
        k(  183) = (   0.0400000   0.1154701   0.0000000), wk =   0.0015360
        k(  184) = (   0.0400000   0.1154701   0.0245857), wk =   0.0030720
        k(  185) = (   0.0400000   0.1154701   0.0491715), wk =   0.0030720
        k(  186) = (   0.0400000   0.1154701   0.0737572), wk =   0.0030720
        k(  187) = (   0.0400000   0.1154701   0.0983429), wk =   0.0030720
        k(  188) = (   0.0400000   0.1154701   0.1229287), wk =   0.0030720
        k(  189) = (   0.0400000   0.1154701   0.1475144), wk =   0.0030720
        k(  190) = (   0.0400000   0.1154701   0.1721001), wk =   0.0030720
        k(  191) = (   0.0400000   0.1154701   0.1966858), wk =   0.0030720
        k(  192) = (   0.0400000   0.1154701   0.2212716), wk =   0.0030720
        k(  193) = (   0.0400000   0.1154701   0.2458573), wk =   0.0030720
        k(  194) = (   0.0400000   0.1154701   0.2704430), wk =   0.0030720
        k(  195) = (   0.0400000   0.1154701   0.2950288), wk =   0.0030720
        k(  196) = (   0.0400000   0.1616581   0.0000000), wk =   0.0015360
        k(  197) = (   0.0400000   0.1616581   0.0245857), wk =   0.0030720
        k(  198) = (   0.0400000   0.1616581   0.0491715), wk =   0.0030720
        k(  199) = (   0.0400000   0.1616581   0.0737572), wk =   0.0030720
        k(  200) = (   0.0400000   0.1616581   0.0983429), wk =   0.0030720
        k(  201) = (   0.0400000   0.1616581   0.1229287), wk =   0.0030720
        k(  202) = (   0.0400000   0.1616581   0.1475144), wk =   0.0030720
        k(  203) = (   0.0400000   0.1616581   0.1721001), wk =   0.0030720
        k(  204) = (   0.0400000   0.1616581   0.1966858), wk =   0.0030720
        k(  205) = (   0.0400000   0.1616581   0.2212716), wk =   0.0030720
        k(  206) = (   0.0400000   0.1616581   0.2458573), wk =   0.0030720
        k(  207) = (   0.0400000   0.1616581   0.2704430), wk =   0.0030720
        k(  208) = (   0.0400000   0.1616581   0.2950288), wk =   0.0030720
        k(  209) = (   0.0400000   0.2078461   0.0000000), wk =   0.0015360
        k(  210) = (   0.0400000   0.2078461   0.0245857), wk =   0.0030720
        k(  211) = (   0.0400000   0.2078461   0.0491715), wk =   0.0030720
        k(  212) = (   0.0400000   0.2078461   0.0737572), wk =   0.0030720
        k(  213) = (   0.0400000   0.2078461   0.0983429), wk =   0.0030720
        k(  214) = (   0.0400000   0.2078461   0.1229287), wk =   0.0030720
        k(  215) = (   0.0400000   0.2078461   0.1475144), wk =   0.0030720
        k(  216) = (   0.0400000   0.2078461   0.1721001), wk =   0.0030720
        k(  217) = (   0.0400000   0.2078461   0.1966858), wk =   0.0030720
        k(  218) = (   0.0400000   0.2078461   0.2212716), wk =   0.0030720
        k(  219) = (   0.0400000   0.2078461   0.2458573), wk =   0.0030720
        k(  220) = (   0.0400000   0.2078461   0.2704430), wk =   0.0030720
        k(  221) = (   0.0400000   0.2078461   0.2950288), wk =   0.0030720
        k(  222) = (   0.0400000   0.2540341   0.0000000), wk =   0.0015360
        k(  223) = (   0.0400000   0.2540341   0.0245857), wk =   0.0030720
        k(  224) = (   0.0400000   0.2540341   0.0491715), wk =   0.0030720
        k(  225) = (   0.0400000   0.2540341   0.0737572), wk =   0.0030720
        k(  226) = (   0.0400000   0.2540341   0.0983429), wk =   0.0030720
        k(  227) = (   0.0400000   0.2540341   0.1229287), wk =   0.0030720
        k(  228) = (   0.0400000   0.2540341   0.1475144), wk =   0.0030720
        k(  229) = (   0.0400000   0.2540341   0.1721001), wk =   0.0030720
        k(  230) = (   0.0400000   0.2540341   0.1966858), wk =   0.0030720
        k(  231) = (   0.0400000   0.2540341   0.2212716), wk =   0.0030720
        k(  232) = (   0.0400000   0.2540341   0.2458573), wk =   0.0030720
        k(  233) = (   0.0400000   0.2540341   0.2704430), wk =   0.0030720
        k(  234) = (   0.0400000   0.2540341   0.2950288), wk =   0.0030720
        k(  235) = (   0.0400000   0.3002221   0.0000000), wk =   0.0015360
        k(  236) = (   0.0400000   0.3002221   0.0245857), wk =   0.0030720
        k(  237) = (   0.0400000   0.3002221   0.0491715), wk =   0.0030720
        k(  238) = (   0.0400000   0.3002221   0.0737572), wk =   0.0030720
        k(  239) = (   0.0400000   0.3002221   0.0983429), wk =   0.0030720
        k(  240) = (   0.0400000   0.3002221   0.1229287), wk =   0.0030720
        k(  241) = (   0.0400000   0.3002221   0.1475144), wk =   0.0030720
        k(  242) = (   0.0400000   0.3002221   0.1721001), wk =   0.0030720
        k(  243) = (   0.0400000   0.3002221   0.1966858), wk =   0.0030720
        k(  244) = (   0.0400000   0.3002221   0.2212716), wk =   0.0030720
        k(  245) = (   0.0400000   0.3002221   0.2458573), wk =   0.0030720
        k(  246) = (   0.0400000   0.3002221   0.2704430), wk =   0.0030720
        k(  247) = (   0.0400000   0.3002221   0.2950288), wk =   0.0030720
        k(  248) = (   0.0400000   0.3464102   0.0000000), wk =   0.0015360
        k(  249) = (   0.0400000   0.3464102   0.0245857), wk =   0.0030720
        k(  250) = (   0.0400000   0.3464102   0.0491715), wk =   0.0030720
        k(  251) = (   0.0400000   0.3464102   0.0737572), wk =   0.0030720
        k(  252) = (   0.0400000   0.3464102   0.0983429), wk =   0.0030720
        k(  253) = (   0.0400000   0.3464102   0.1229287), wk =   0.0030720
        k(  254) = (   0.0400000   0.3464102   0.1475144), wk =   0.0030720
        k(  255) = (   0.0400000   0.3464102   0.1721001), wk =   0.0030720
        k(  256) = (   0.0400000   0.3464102   0.1966858), wk =   0.0030720
        k(  257) = (   0.0400000   0.3464102   0.2212716), wk =   0.0030720
        k(  258) = (   0.0400000   0.3464102   0.2458573), wk =   0.0030720
        k(  259) = (   0.0400000   0.3464102   0.2704430), wk =   0.0030720
        k(  260) = (   0.0400000   0.3464102   0.2950288), wk =   0.0030720
        k(  261) = (   0.0400000   0.3925982   0.0000000), wk =   0.0015360
        k(  262) = (   0.0400000   0.3925982   0.0245857), wk =   0.0030720
        k(  263) = (   0.0400000   0.3925982   0.0491715), wk =   0.0030720
        k(  264) = (   0.0400000   0.3925982   0.0737572), wk =   0.0030720
        k(  265) = (   0.0400000   0.3925982   0.0983429), wk =   0.0030720
        k(  266) = (   0.0400000   0.3925982   0.1229287), wk =   0.0030720
        k(  267) = (   0.0400000   0.3925982   0.1475144), wk =   0.0030720
        k(  268) = (   0.0400000   0.3925982   0.1721001), wk =   0.0030720
        k(  269) = (   0.0400000   0.3925982   0.1966858), wk =   0.0030720
        k(  270) = (   0.0400000   0.3925982   0.2212716), wk =   0.0030720
        k(  271) = (   0.0400000   0.3925982   0.2458573), wk =   0.0030720
        k(  272) = (   0.0400000   0.3925982   0.2704430), wk =   0.0030720
        k(  273) = (   0.0400000   0.3925982   0.2950288), wk =   0.0030720
        k(  274) = (   0.0400000   0.4387862   0.0000000), wk =   0.0015360
        k(  275) = (   0.0400000   0.4387862   0.0245857), wk =   0.0030720
        k(  276) = (   0.0400000   0.4387862   0.0491715), wk =   0.0030720
        k(  277) = (   0.0400000   0.4387862   0.0737572), wk =   0.0030720
        k(  278) = (   0.0400000   0.4387862   0.0983429), wk =   0.0030720
        k(  279) = (   0.0400000   0.4387862   0.1229287), wk =   0.0030720
        k(  280) = (   0.0400000   0.4387862   0.1475144), wk =   0.0030720
        k(  281) = (   0.0400000   0.4387862   0.1721001), wk =   0.0030720
        k(  282) = (   0.0400000   0.4387862   0.1966858), wk =   0.0030720
        k(  283) = (   0.0400000   0.4387862   0.2212716), wk =   0.0030720
        k(  284) = (   0.0400000   0.4387862   0.2458573), wk =   0.0030720
        k(  285) = (   0.0400000   0.4387862   0.2704430), wk =   0.0030720
        k(  286) = (   0.0400000   0.4387862   0.2950288), wk =   0.0030720
        k(  287) = (   0.0400000   0.4849742   0.0000000), wk =   0.0015360
        k(  288) = (   0.0400000   0.4849742   0.0245857), wk =   0.0030720
        k(  289) = (   0.0400000   0.4849742   0.0491715), wk =   0.0030720
        k(  290) = (   0.0400000   0.4849742   0.0737572), wk =   0.0030720
        k(  291) = (   0.0400000   0.4849742   0.0983429), wk =   0.0030720
        k(  292) = (   0.0400000   0.4849742   0.1229287), wk =   0.0030720
        k(  293) = (   0.0400000   0.4849742   0.1475144), wk =   0.0030720
        k(  294) = (   0.0400000   0.4849742   0.1721001), wk =   0.0030720
        k(  295) = (   0.0400000   0.4849742   0.1966858), wk =   0.0030720
        k(  296) = (   0.0400000   0.4849742   0.2212716), wk =   0.0030720
        k(  297) = (   0.0400000   0.4849742   0.2458573), wk =   0.0030720
        k(  298) = (   0.0400000   0.4849742   0.2704430), wk =   0.0030720
        k(  299) = (   0.0400000   0.4849742   0.2950288), wk =   0.0030720
        k(  300) = (   0.0400000   0.5311622   0.0000000), wk =   0.0015360
        k(  301) = (   0.0400000   0.5311622   0.0245857), wk =   0.0030720
        k(  302) = (   0.0400000   0.5311622   0.0491715), wk =   0.0030720
        k(  303) = (   0.0400000   0.5311622   0.0737572), wk =   0.0030720
        k(  304) = (   0.0400000   0.5311622   0.0983429), wk =   0.0030720
        k(  305) = (   0.0400000   0.5311622   0.1229287), wk =   0.0030720
        k(  306) = (   0.0400000   0.5311622   0.1475144), wk =   0.0030720
        k(  307) = (   0.0400000   0.5311622   0.1721001), wk =   0.0030720
        k(  308) = (   0.0400000   0.5311622   0.1966858), wk =   0.0030720
        k(  309) = (   0.0400000   0.5311622   0.2212716), wk =   0.0030720
        k(  310) = (   0.0400000   0.5311622   0.2458573), wk =   0.0030720
        k(  311) = (   0.0400000   0.5311622   0.2704430), wk =   0.0030720
        k(  312) = (   0.0400000   0.5311622   0.2950288), wk =   0.0030720
        k(  313) = (   0.0400000   0.5773503   0.0000000), wk =   0.0007680
        k(  314) = (   0.0400000   0.5773503   0.0245857), wk =   0.0015360
        k(  315) = (   0.0400000   0.5773503   0.0491715), wk =   0.0015360
        k(  316) = (   0.0400000   0.5773503   0.0737572), wk =   0.0015360
        k(  317) = (   0.0400000   0.5773503   0.0983429), wk =   0.0015360
        k(  318) = (   0.0400000   0.5773503   0.1229287), wk =   0.0015360
        k(  319) = (   0.0400000   0.5773503   0.1475144), wk =   0.0015360
        k(  320) = (   0.0400000   0.5773503   0.1721001), wk =   0.0015360
        k(  321) = (   0.0400000   0.5773503   0.1966858), wk =   0.0015360
        k(  322) = (   0.0400000   0.5773503   0.2212716), wk =   0.0015360
        k(  323) = (   0.0400000   0.5773503   0.2458573), wk =   0.0015360
        k(  324) = (   0.0400000   0.5773503   0.2704430), wk =   0.0015360
        k(  325) = (   0.0400000   0.5773503   0.2950288), wk =   0.0015360
        k(  326) = (   0.0800000   0.1385641   0.0000000), wk =   0.0007680
        k(  327) = (   0.0800000   0.1385641   0.0245857), wk =   0.0015360
        k(  328) = (   0.0800000   0.1385641   0.0491715), wk =   0.0015360
        k(  329) = (   0.0800000   0.1385641   0.0737572), wk =   0.0015360
        k(  330) = (   0.0800000   0.1385641   0.0983429), wk =   0.0015360
        k(  331) = (   0.0800000   0.1385641   0.1229287), wk =   0.0015360
        k(  332) = (   0.0800000   0.1385641   0.1475144), wk =   0.0015360
        k(  333) = (   0.0800000   0.1385641   0.1721001), wk =   0.0015360
        k(  334) = (   0.0800000   0.1385641   0.1966858), wk =   0.0015360
        k(  335) = (   0.0800000   0.1385641   0.2212716), wk =   0.0015360
        k(  336) = (   0.0800000   0.1385641   0.2458573), wk =   0.0015360
        k(  337) = (   0.0800000   0.1385641   0.2704430), wk =   0.0015360
        k(  338) = (   0.0800000   0.1385641   0.2950288), wk =   0.0015360
        k(  339) = (   0.0800000   0.1847521   0.0000000), wk =   0.0015360
        k(  340) = (   0.0800000   0.1847521   0.0245857), wk =   0.0030720
        k(  341) = (   0.0800000   0.1847521   0.0491715), wk =   0.0030720
        k(  342) = (   0.0800000   0.1847521   0.0737572), wk =   0.0030720
        k(  343) = (   0.0800000   0.1847521   0.0983429), wk =   0.0030720
        k(  344) = (   0.0800000   0.1847521   0.1229287), wk =   0.0030720
        k(  345) = (   0.0800000   0.1847521   0.1475144), wk =   0.0030720
        k(  346) = (   0.0800000   0.1847521   0.1721001), wk =   0.0030720
        k(  347) = (   0.0800000   0.1847521   0.1966858), wk =   0.0030720
        k(  348) = (   0.0800000   0.1847521   0.2212716), wk =   0.0030720
        k(  349) = (   0.0800000   0.1847521   0.2458573), wk =   0.0030720
        k(  350) = (   0.0800000   0.1847521   0.2704430), wk =   0.0030720
        k(  351) = (   0.0800000   0.1847521   0.2950288), wk =   0.0030720
        k(  352) = (   0.0800000   0.2309401   0.0000000), wk =   0.0015360
        k(  353) = (   0.0800000   0.2309401   0.0245857), wk =   0.0030720
        k(  354) = (   0.0800000   0.2309401   0.0491715), wk =   0.0030720
        k(  355) = (   0.0800000   0.2309401   0.0737572), wk =   0.0030720
        k(  356) = (   0.0800000   0.2309401   0.0983429), wk =   0.0030720
        k(  357) = (   0.0800000   0.2309401   0.1229287), wk =   0.0030720
        k(  358) = (   0.0800000   0.2309401   0.1475144), wk =   0.0030720
        k(  359) = (   0.0800000   0.2309401   0.1721001), wk =   0.0030720
        k(  360) = (   0.0800000   0.2309401   0.1966858), wk =   0.0030720
        k(  361) = (   0.0800000   0.2309401   0.2212716), wk =   0.0030720
        k(  362) = (   0.0800000   0.2309401   0.2458573), wk =   0.0030720
        k(  363) = (   0.0800000   0.2309401   0.2704430), wk =   0.0030720
        k(  364) = (   0.0800000   0.2309401   0.2950288), wk =   0.0030720
        k(  365) = (   0.0800000   0.2771281   0.0000000), wk =   0.0015360
        k(  366) = (   0.0800000   0.2771281   0.0245857), wk =   0.0030720
        k(  367) = (   0.0800000   0.2771281   0.0491715), wk =   0.0030720
        k(  368) = (   0.0800000   0.2771281   0.0737572), wk =   0.0030720
        k(  369) = (   0.0800000   0.2771281   0.0983429), wk =   0.0030720
        k(  370) = (   0.0800000   0.2771281   0.1229287), wk =   0.0030720
        k(  371) = (   0.0800000   0.2771281   0.1475144), wk =   0.0030720
        k(  372) = (   0.0800000   0.2771281   0.1721001), wk =   0.0030720
        k(  373) = (   0.0800000   0.2771281   0.1966858), wk =   0.0030720
        k(  374) = (   0.0800000   0.2771281   0.2212716), wk =   0.0030720
        k(  375) = (   0.0800000   0.2771281   0.2458573), wk =   0.0030720
        k(  376) = (   0.0800000   0.2771281   0.2704430), wk =   0.0030720
        k(  377) = (   0.0800000   0.2771281   0.2950288), wk =   0.0030720
        k(  378) = (   0.0800000   0.3233162   0.0000000), wk =   0.0015360
        k(  379) = (   0.0800000   0.3233162   0.0245857), wk =   0.0030720
        k(  380) = (   0.0800000   0.3233162   0.0491715), wk =   0.0030720
        k(  381) = (   0.0800000   0.3233162   0.0737572), wk =   0.0030720
        k(  382) = (   0.0800000   0.3233162   0.0983429), wk =   0.0030720
        k(  383) = (   0.0800000   0.3233162   0.1229287), wk =   0.0030720
        k(  384) = (   0.0800000   0.3233162   0.1475144), wk =   0.0030720
        k(  385) = (   0.0800000   0.3233162   0.1721001), wk =   0.0030720
        k(  386) = (   0.0800000   0.3233162   0.1966858), wk =   0.0030720
        k(  387) = (   0.0800000   0.3233162   0.2212716), wk =   0.0030720
        k(  388) = (   0.0800000   0.3233162   0.2458573), wk =   0.0030720
        k(  389) = (   0.0800000   0.3233162   0.2704430), wk =   0.0030720
        k(  390) = (   0.0800000   0.3233162   0.2950288), wk =   0.0030720
        k(  391) = (   0.0800000   0.3695042   0.0000000), wk =   0.0015360
        k(  392) = (   0.0800000   0.3695042   0.0245857), wk =   0.0030720
        k(  393) = (   0.0800000   0.3695042   0.0491715), wk =   0.0030720
        k(  394) = (   0.0800000   0.3695042   0.0737572), wk =   0.0030720
        k(  395) = (   0.0800000   0.3695042   0.0983429), wk =   0.0030720
        k(  396) = (   0.0800000   0.3695042   0.1229287), wk =   0.0030720
        k(  397) = (   0.0800000   0.3695042   0.1475144), wk =   0.0030720
        k(  398) = (   0.0800000   0.3695042   0.1721001), wk =   0.0030720
        k(  399) = (   0.0800000   0.3695042   0.1966858), wk =   0.0030720
        k(  400) = (   0.0800000   0.3695042   0.2212716), wk =   0.0030720
        k(  401) = (   0.0800000   0.3695042   0.2458573), wk =   0.0030720
        k(  402) = (   0.0800000   0.3695042   0.2704430), wk =   0.0030720
        k(  403) = (   0.0800000   0.3695042   0.2950288), wk =   0.0030720
        k(  404) = (   0.0800000   0.4156922   0.0000000), wk =   0.0015360
        k(  405) = (   0.0800000   0.4156922   0.0245857), wk =   0.0030720
        k(  406) = (   0.0800000   0.4156922   0.0491715), wk =   0.0030720
        k(  407) = (   0.0800000   0.4156922   0.0737572), wk =   0.0030720
        k(  408) = (   0.0800000   0.4156922   0.0983429), wk =   0.0030720
        k(  409) = (   0.0800000   0.4156922   0.1229287), wk =   0.0030720
        k(  410) = (   0.0800000   0.4156922   0.1475144), wk =   0.0030720
        k(  411) = (   0.0800000   0.4156922   0.1721001), wk =   0.0030720
        k(  412) = (   0.0800000   0.4156922   0.1966858), wk =   0.0030720
        k(  413) = (   0.0800000   0.4156922   0.2212716), wk =   0.0030720
        k(  414) = (   0.0800000   0.4156922   0.2458573), wk =   0.0030720
        k(  415) = (   0.0800000   0.4156922   0.2704430), wk =   0.0030720
        k(  416) = (   0.0800000   0.4156922   0.2950288), wk =   0.0030720
        k(  417) = (   0.0800000   0.4618802   0.0000000), wk =   0.0015360
        k(  418) = (   0.0800000   0.4618802   0.0245857), wk =   0.0030720
        k(  419) = (   0.0800000   0.4618802   0.0491715), wk =   0.0030720
        k(  420) = (   0.0800000   0.4618802   0.0737572), wk =   0.0030720
        k(  421) = (   0.0800000   0.4618802   0.0983429), wk =   0.0030720
        k(  422) = (   0.0800000   0.4618802   0.1229287), wk =   0.0030720
        k(  423) = (   0.0800000   0.4618802   0.1475144), wk =   0.0030720
        k(  424) = (   0.0800000   0.4618802   0.1721001), wk =   0.0030720
        k(  425) = (   0.0800000   0.4618802   0.1966858), wk =   0.0030720
        k(  426) = (   0.0800000   0.4618802   0.2212716), wk =   0.0030720
        k(  427) = (   0.0800000   0.4618802   0.2458573), wk =   0.0030720
        k(  428) = (   0.0800000   0.4618802   0.2704430), wk =   0.0030720
        k(  429) = (   0.0800000   0.4618802   0.2950288), wk =   0.0030720
        k(  430) = (   0.0800000   0.5080682   0.0000000), wk =   0.0015360
        k(  431) = (   0.0800000   0.5080682   0.0245857), wk =   0.0030720
        k(  432) = (   0.0800000   0.5080682   0.0491715), wk =   0.0030720
        k(  433) = (   0.0800000   0.5080682   0.0737572), wk =   0.0030720
        k(  434) = (   0.0800000   0.5080682   0.0983429), wk =   0.0030720
        k(  435) = (   0.0800000   0.5080682   0.1229287), wk =   0.0030720
        k(  436) = (   0.0800000   0.5080682   0.1475144), wk =   0.0030720
        k(  437) = (   0.0800000   0.5080682   0.1721001), wk =   0.0030720
        k(  438) = (   0.0800000   0.5080682   0.1966858), wk =   0.0030720
        k(  439) = (   0.0800000   0.5080682   0.2212716), wk =   0.0030720
        k(  440) = (   0.0800000   0.5080682   0.2458573), wk =   0.0030720
        k(  441) = (   0.0800000   0.5080682   0.2704430), wk =   0.0030720
        k(  442) = (   0.0800000   0.5080682   0.2950288), wk =   0.0030720
        k(  443) = (   0.0800000   0.5542563   0.0000000), wk =   0.0015360
        k(  444) = (   0.0800000   0.5542563   0.0245857), wk =   0.0030720
        k(  445) = (   0.0800000   0.5542563   0.0491715), wk =   0.0030720
        k(  446) = (   0.0800000   0.5542563   0.0737572), wk =   0.0030720
        k(  447) = (   0.0800000   0.5542563   0.0983429), wk =   0.0030720
        k(  448) = (   0.0800000   0.5542563   0.1229287), wk =   0.0030720
        k(  449) = (   0.0800000   0.5542563   0.1475144), wk =   0.0030720
        k(  450) = (   0.0800000   0.5542563   0.1721001), wk =   0.0030720
        k(  451) = (   0.0800000   0.5542563   0.1966858), wk =   0.0030720
        k(  452) = (   0.0800000   0.5542563   0.2212716), wk =   0.0030720
        k(  453) = (   0.0800000   0.5542563   0.2458573), wk =   0.0030720
        k(  454) = (   0.0800000   0.5542563   0.2704430), wk =   0.0030720
        k(  455) = (   0.0800000   0.5542563   0.2950288), wk =   0.0030720
        k(  456) = (   0.1200000   0.2078461   0.0000000), wk =   0.0007680
        k(  457) = (   0.1200000   0.2078461   0.0245857), wk =   0.0015360
        k(  458) = (   0.1200000   0.2078461   0.0491715), wk =   0.0015360
        k(  459) = (   0.1200000   0.2078461   0.0737572), wk =   0.0015360
        k(  460) = (   0.1200000   0.2078461   0.0983429), wk =   0.0015360
        k(  461) = (   0.1200000   0.2078461   0.1229287), wk =   0.0015360
        k(  462) = (   0.1200000   0.2078461   0.1475144), wk =   0.0015360
        k(  463) = (   0.1200000   0.2078461   0.1721001), wk =   0.0015360
        k(  464) = (   0.1200000   0.2078461   0.1966858), wk =   0.0015360
        k(  465) = (   0.1200000   0.2078461   0.2212716), wk =   0.0015360
        k(  466) = (   0.1200000   0.2078461   0.2458573), wk =   0.0015360
        k(  467) = (   0.1200000   0.2078461   0.2704430), wk =   0.0015360
        k(  468) = (   0.1200000   0.2078461   0.2950288), wk =   0.0015360
        k(  469) = (   0.1200000   0.2540341   0.0000000), wk =   0.0015360
        k(  470) = (   0.1200000   0.2540341   0.0245857), wk =   0.0030720
        k(  471) = (   0.1200000   0.2540341   0.0491715), wk =   0.0030720
        k(  472) = (   0.1200000   0.2540341   0.0737572), wk =   0.0030720
        k(  473) = (   0.1200000   0.2540341   0.0983429), wk =   0.0030720
        k(  474) = (   0.1200000   0.2540341   0.1229287), wk =   0.0030720
        k(  475) = (   0.1200000   0.2540341   0.1475144), wk =   0.0030720
        k(  476) = (   0.1200000   0.2540341   0.1721001), wk =   0.0030720
        k(  477) = (   0.1200000   0.2540341   0.1966858), wk =   0.0030720
        k(  478) = (   0.1200000   0.2540341   0.2212716), wk =   0.0030720
        k(  479) = (   0.1200000   0.2540341   0.2458573), wk =   0.0030720
        k(  480) = (   0.1200000   0.2540341   0.2704430), wk =   0.0030720
        k(  481) = (   0.1200000   0.2540341   0.2950288), wk =   0.0030720
        k(  482) = (   0.1200000   0.3002221   0.0000000), wk =   0.0015360
        k(  483) = (   0.1200000   0.3002221   0.0245857), wk =   0.0030720
        k(  484) = (   0.1200000   0.3002221   0.0491715), wk =   0.0030720
        k(  485) = (   0.1200000   0.3002221   0.0737572), wk =   0.0030720
        k(  486) = (   0.1200000   0.3002221   0.0983429), wk =   0.0030720
        k(  487) = (   0.1200000   0.3002221   0.1229287), wk =   0.0030720
        k(  488) = (   0.1200000   0.3002221   0.1475144), wk =   0.0030720
        k(  489) = (   0.1200000   0.3002221   0.1721001), wk =   0.0030720
        k(  490) = (   0.1200000   0.3002221   0.1966858), wk =   0.0030720
        k(  491) = (   0.1200000   0.3002221   0.2212716), wk =   0.0030720
        k(  492) = (   0.1200000   0.3002221   0.2458573), wk =   0.0030720
        k(  493) = (   0.1200000   0.3002221   0.2704430), wk =   0.0030720
        k(  494) = (   0.1200000   0.3002221   0.2950288), wk =   0.0030720
        k(  495) = (   0.1200000   0.3464102   0.0000000), wk =   0.0015360
        k(  496) = (   0.1200000   0.3464102   0.0245857), wk =   0.0030720
        k(  497) = (   0.1200000   0.3464102   0.0491715), wk =   0.0030720
        k(  498) = (   0.1200000   0.3464102   0.0737572), wk =   0.0030720
        k(  499) = (   0.1200000   0.3464102   0.0983429), wk =   0.0030720
        k(  500) = (   0.1200000   0.3464102   0.1229287), wk =   0.0030720
        k(  501) = (   0.1200000   0.3464102   0.1475144), wk =   0.0030720
        k(  502) = (   0.1200000   0.3464102   0.1721001), wk =   0.0030720
        k(  503) = (   0.1200000   0.3464102   0.1966858), wk =   0.0030720
        k(  504) = (   0.1200000   0.3464102   0.2212716), wk =   0.0030720
        k(  505) = (   0.1200000   0.3464102   0.2458573), wk =   0.0030720
        k(  506) = (   0.1200000   0.3464102   0.2704430), wk =   0.0030720
        k(  507) = (   0.1200000   0.3464102   0.2950288), wk =   0.0030720
        k(  508) = (   0.1200000   0.3925982   0.0000000), wk =   0.0015360
        k(  509) = (   0.1200000   0.3925982   0.0245857), wk =   0.0030720
        k(  510) = (   0.1200000   0.3925982   0.0491715), wk =   0.0030720
        k(  511) = (   0.1200000   0.3925982   0.0737572), wk =   0.0030720
        k(  512) = (   0.1200000   0.3925982   0.0983429), wk =   0.0030720
        k(  513) = (   0.1200000   0.3925982   0.1229287), wk =   0.0030720
        k(  514) = (   0.1200000   0.3925982   0.1475144), wk =   0.0030720
        k(  515) = (   0.1200000   0.3925982   0.1721001), wk =   0.0030720
        k(  516) = (   0.1200000   0.3925982   0.1966858), wk =   0.0030720
        k(  517) = (   0.1200000   0.3925982   0.2212716), wk =   0.0030720
        k(  518) = (   0.1200000   0.3925982   0.2458573), wk =   0.0030720
        k(  519) = (   0.1200000   0.3925982   0.2704430), wk =   0.0030720
        k(  520) = (   0.1200000   0.3925982   0.2950288), wk =   0.0030720
        k(  521) = (   0.1200000   0.4387862   0.0000000), wk =   0.0015360
        k(  522) = (   0.1200000   0.4387862   0.0245857), wk =   0.0030720
        k(  523) = (   0.1200000   0.4387862   0.0491715), wk =   0.0030720
        k(  524) = (   0.1200000   0.4387862   0.0737572), wk =   0.0030720
        k(  525) = (   0.1200000   0.4387862   0.0983429), wk =   0.0030720
        k(  526) = (   0.1200000   0.4387862   0.1229287), wk =   0.0030720
        k(  527) = (   0.1200000   0.4387862   0.1475144), wk =   0.0030720
        k(  528) = (   0.1200000   0.4387862   0.1721001), wk =   0.0030720
        k(  529) = (   0.1200000   0.4387862   0.1966858), wk =   0.0030720
        k(  530) = (   0.1200000   0.4387862   0.2212716), wk =   0.0030720
        k(  531) = (   0.1200000   0.4387862   0.2458573), wk =   0.0030720
        k(  532) = (   0.1200000   0.4387862   0.2704430), wk =   0.0030720
        k(  533) = (   0.1200000   0.4387862   0.2950288), wk =   0.0030720
        k(  534) = (   0.1200000   0.4849742   0.0000000), wk =   0.0015360
        k(  535) = (   0.1200000   0.4849742   0.0245857), wk =   0.0030720
        k(  536) = (   0.1200000   0.4849742   0.0491715), wk =   0.0030720
        k(  537) = (   0.1200000   0.4849742   0.0737572), wk =   0.0030720
        k(  538) = (   0.1200000   0.4849742   0.0983429), wk =   0.0030720
        k(  539) = (   0.1200000   0.4849742   0.1229287), wk =   0.0030720
        k(  540) = (   0.1200000   0.4849742   0.1475144), wk =   0.0030720
        k(  541) = (   0.1200000   0.4849742   0.1721001), wk =   0.0030720
        k(  542) = (   0.1200000   0.4849742   0.1966858), wk =   0.0030720
        k(  543) = (   0.1200000   0.4849742   0.2212716), wk =   0.0030720
        k(  544) = (   0.1200000   0.4849742   0.2458573), wk =   0.0030720
        k(  545) = (   0.1200000   0.4849742   0.2704430), wk =   0.0030720
        k(  546) = (   0.1200000   0.4849742   0.2950288), wk =   0.0030720
        k(  547) = (   0.1200000   0.5311622   0.0000000), wk =   0.0015360
        k(  548) = (   0.1200000   0.5311622   0.0245857), wk =   0.0030720
        k(  549) = (   0.1200000   0.5311622   0.0491715), wk =   0.0030720
        k(  550) = (   0.1200000   0.5311622   0.0737572), wk =   0.0030720
        k(  551) = (   0.1200000   0.5311622   0.0983429), wk =   0.0030720
        k(  552) = (   0.1200000   0.5311622   0.1229287), wk =   0.0030720
        k(  553) = (   0.1200000   0.5311622   0.1475144), wk =   0.0030720
        k(  554) = (   0.1200000   0.5311622   0.1721001), wk =   0.0030720
        k(  555) = (   0.1200000   0.5311622   0.1966858), wk =   0.0030720
        k(  556) = (   0.1200000   0.5311622   0.2212716), wk =   0.0030720
        k(  557) = (   0.1200000   0.5311622   0.2458573), wk =   0.0030720
        k(  558) = (   0.1200000   0.5311622   0.2704430), wk =   0.0030720
        k(  559) = (   0.1200000   0.5311622   0.2950288), wk =   0.0030720
        k(  560) = (   0.1200000   0.5773503   0.0000000), wk =   0.0007680
        k(  561) = (   0.1200000   0.5773503   0.0245857), wk =   0.0015360
        k(  562) = (   0.1200000   0.5773503   0.0491715), wk =   0.0015360
        k(  563) = (   0.1200000   0.5773503   0.0737572), wk =   0.0015360
        k(  564) = (   0.1200000   0.5773503   0.0983429), wk =   0.0015360
        k(  565) = (   0.1200000   0.5773503   0.1229287), wk =   0.0015360
        k(  566) = (   0.1200000   0.5773503   0.1475144), wk =   0.0015360
        k(  567) = (   0.1200000   0.5773503   0.1721001), wk =   0.0015360
        k(  568) = (   0.1200000   0.5773503   0.1966858), wk =   0.0015360
        k(  569) = (   0.1200000   0.5773503   0.2212716), wk =   0.0015360
        k(  570) = (   0.1200000   0.5773503   0.2458573), wk =   0.0015360
        k(  571) = (   0.1200000   0.5773503   0.2704430), wk =   0.0015360
        k(  572) = (   0.1200000   0.5773503   0.2950288), wk =   0.0015360
        k(  573) = (   0.1600000   0.2771281   0.0000000), wk =   0.0007680
        k(  574) = (   0.1600000   0.2771281   0.0245857), wk =   0.0015360
        k(  575) = (   0.1600000   0.2771281   0.0491715), wk =   0.0015360
        k(  576) = (   0.1600000   0.2771281   0.0737572), wk =   0.0015360
        k(  577) = (   0.1600000   0.2771281   0.0983429), wk =   0.0015360
        k(  578) = (   0.1600000   0.2771281   0.1229287), wk =   0.0015360
        k(  579) = (   0.1600000   0.2771281   0.1475144), wk =   0.0015360
        k(  580) = (   0.1600000   0.2771281   0.1721001), wk =   0.0015360
        k(  581) = (   0.1600000   0.2771281   0.1966858), wk =   0.0015360
        k(  582) = (   0.1600000   0.2771281   0.2212716), wk =   0.0015360
        k(  583) = (   0.1600000   0.2771281   0.2458573), wk =   0.0015360
        k(  584) = (   0.1600000   0.2771281   0.2704430), wk =   0.0015360
        k(  585) = (   0.1600000   0.2771281   0.2950288), wk =   0.0015360
        k(  586) = (   0.1600000   0.3233162   0.0000000), wk =   0.0015360
        k(  587) = (   0.1600000   0.3233162   0.0245857), wk =   0.0030720
        k(  588) = (   0.1600000   0.3233162   0.0491715), wk =   0.0030720
        k(  589) = (   0.1600000   0.3233162   0.0737572), wk =   0.0030720
        k(  590) = (   0.1600000   0.3233162   0.0983429), wk =   0.0030720
        k(  591) = (   0.1600000   0.3233162   0.1229287), wk =   0.0030720
        k(  592) = (   0.1600000   0.3233162   0.1475144), wk =   0.0030720
        k(  593) = (   0.1600000   0.3233162   0.1721001), wk =   0.0030720
        k(  594) = (   0.1600000   0.3233162   0.1966858), wk =   0.0030720
        k(  595) = (   0.1600000   0.3233162   0.2212716), wk =   0.0030720
        k(  596) = (   0.1600000   0.3233162   0.2458573), wk =   0.0030720
        k(  597) = (   0.1600000   0.3233162   0.2704430), wk =   0.0030720
        k(  598) = (   0.1600000   0.3233162   0.2950288), wk =   0.0030720
        k(  599) = (   0.1600000   0.3695042   0.0000000), wk =   0.0015360
        k(  600) = (   0.1600000   0.3695042   0.0245857), wk =   0.0030720
        k(  601) = (   0.1600000   0.3695042   0.0491715), wk =   0.0030720
        k(  602) = (   0.1600000   0.3695042   0.0737572), wk =   0.0030720
        k(  603) = (   0.1600000   0.3695042   0.0983429), wk =   0.0030720
        k(  604) = (   0.1600000   0.3695042   0.1229287), wk =   0.0030720
        k(  605) = (   0.1600000   0.3695042   0.1475144), wk =   0.0030720
        k(  606) = (   0.1600000   0.3695042   0.1721001), wk =   0.0030720
        k(  607) = (   0.1600000   0.3695042   0.1966858), wk =   0.0030720
        k(  608) = (   0.1600000   0.3695042   0.2212716), wk =   0.0030720
        k(  609) = (   0.1600000   0.3695042   0.2458573), wk =   0.0030720
        k(  610) = (   0.1600000   0.3695042   0.2704430), wk =   0.0030720
        k(  611) = (   0.1600000   0.3695042   0.2950288), wk =   0.0030720
        k(  612) = (   0.1600000   0.4156922   0.0000000), wk =   0.0015360
        k(  613) = (   0.1600000   0.4156922   0.0245857), wk =   0.0030720
        k(  614) = (   0.1600000   0.4156922   0.0491715), wk =   0.0030720
        k(  615) = (   0.1600000   0.4156922   0.0737572), wk =   0.0030720
        k(  616) = (   0.1600000   0.4156922   0.0983429), wk =   0.0030720
        k(  617) = (   0.1600000   0.4156922   0.1229287), wk =   0.0030720
        k(  618) = (   0.1600000   0.4156922   0.1475144), wk =   0.0030720
        k(  619) = (   0.1600000   0.4156922   0.1721001), wk =   0.0030720
        k(  620) = (   0.1600000   0.4156922   0.1966858), wk =   0.0030720
        k(  621) = (   0.1600000   0.4156922   0.2212716), wk =   0.0030720
        k(  622) = (   0.1600000   0.4156922   0.2458573), wk =   0.0030720
        k(  623) = (   0.1600000   0.4156922   0.2704430), wk =   0.0030720
        k(  624) = (   0.1600000   0.4156922   0.2950288), wk =   0.0030720
        k(  625) = (   0.1600000   0.4618802   0.0000000), wk =   0.0015360
        k(  626) = (   0.1600000   0.4618802   0.0245857), wk =   0.0030720
        k(  627) = (   0.1600000   0.4618802   0.0491715), wk =   0.0030720
        k(  628) = (   0.1600000   0.4618802   0.0737572), wk =   0.0030720
        k(  629) = (   0.1600000   0.4618802   0.0983429), wk =   0.0030720
        k(  630) = (   0.1600000   0.4618802   0.1229287), wk =   0.0030720
        k(  631) = (   0.1600000   0.4618802   0.1475144), wk =   0.0030720
        k(  632) = (   0.1600000   0.4618802   0.1721001), wk =   0.0030720
        k(  633) = (   0.1600000   0.4618802   0.1966858), wk =   0.0030720
        k(  634) = (   0.1600000   0.4618802   0.2212716), wk =   0.0030720
        k(  635) = (   0.1600000   0.4618802   0.2458573), wk =   0.0030720
        k(  636) = (   0.1600000   0.4618802   0.2704430), wk =   0.0030720
        k(  637) = (   0.1600000   0.4618802   0.2950288), wk =   0.0030720
        k(  638) = (   0.1600000   0.5080682   0.0000000), wk =   0.0015360
        k(  639) = (   0.1600000   0.5080682   0.0245857), wk =   0.0030720
        k(  640) = (   0.1600000   0.5080682   0.0491715), wk =   0.0030720
        k(  641) = (   0.1600000   0.5080682   0.0737572), wk =   0.0030720
        k(  642) = (   0.1600000   0.5080682   0.0983429), wk =   0.0030720
        k(  643) = (   0.1600000   0.5080682   0.1229287), wk =   0.0030720
        k(  644) = (   0.1600000   0.5080682   0.1475144), wk =   0.0030720
        k(  645) = (   0.1600000   0.5080682   0.1721001), wk =   0.0030720
        k(  646) = (   0.1600000   0.5080682   0.1966858), wk =   0.0030720
        k(  647) = (   0.1600000   0.5080682   0.2212716), wk =   0.0030720
        k(  648) = (   0.1600000   0.5080682   0.2458573), wk =   0.0030720
        k(  649) = (   0.1600000   0.5080682   0.2704430), wk =   0.0030720
        k(  650) = (   0.1600000   0.5080682   0.2950288), wk =   0.0030720
        k(  651) = (   0.1600000   0.5542563   0.0000000), wk =   0.0015360
        k(  652) = (   0.1600000   0.5542563   0.0245857), wk =   0.0030720
        k(  653) = (   0.1600000   0.5542563   0.0491715), wk =   0.0030720
        k(  654) = (   0.1600000   0.5542563   0.0737572), wk =   0.0030720
        k(  655) = (   0.1600000   0.5542563   0.0983429), wk =   0.0030720
        k(  656) = (   0.1600000   0.5542563   0.1229287), wk =   0.0030720
        k(  657) = (   0.1600000   0.5542563   0.1475144), wk =   0.0030720
        k(  658) = (   0.1600000   0.5542563   0.1721001), wk =   0.0030720
        k(  659) = (   0.1600000   0.5542563   0.1966858), wk =   0.0030720
        k(  660) = (   0.1600000   0.5542563   0.2212716), wk =   0.0030720
        k(  661) = (   0.1600000   0.5542563   0.2458573), wk =   0.0030720
        k(  662) = (   0.1600000   0.5542563   0.2704430), wk =   0.0030720
        k(  663) = (   0.1600000   0.5542563   0.2950288), wk =   0.0030720
        k(  664) = (   0.2000000   0.3464102   0.0000000), wk =   0.0007680
        k(  665) = (   0.2000000   0.3464102   0.0245857), wk =   0.0015360
        k(  666) = (   0.2000000   0.3464102   0.0491715), wk =   0.0015360
        k(  667) = (   0.2000000   0.3464102   0.0737572), wk =   0.0015360
        k(  668) = (   0.2000000   0.3464102   0.0983429), wk =   0.0015360
        k(  669) = (   0.2000000   0.3464102   0.1229287), wk =   0.0015360
        k(  670) = (   0.2000000   0.3464102   0.1475144), wk =   0.0015360
        k(  671) = (   0.2000000   0.3464102   0.1721001), wk =   0.0015360
        k(  672) = (   0.2000000   0.3464102   0.1966858), wk =   0.0015360
        k(  673) = (   0.2000000   0.3464102   0.2212716), wk =   0.0015360
        k(  674) = (   0.2000000   0.3464102   0.2458573), wk =   0.0015360
        k(  675) = (   0.2000000   0.3464102   0.2704430), wk =   0.0015360
        k(  676) = (   0.2000000   0.3464102   0.2950288), wk =   0.0015360
        k(  677) = (   0.2000000   0.3925982   0.0000000), wk =   0.0015360
        k(  678) = (   0.2000000   0.3925982   0.0245857), wk =   0.0030720
        k(  679) = (   0.2000000   0.3925982   0.0491715), wk =   0.0030720
        k(  680) = (   0.2000000   0.3925982   0.0737572), wk =   0.0030720
        k(  681) = (   0.2000000   0.3925982   0.0983429), wk =   0.0030720
        k(  682) = (   0.2000000   0.3925982   0.1229287), wk =   0.0030720
        k(  683) = (   0.2000000   0.3925982   0.1475144), wk =   0.0030720
        k(  684) = (   0.2000000   0.3925982   0.1721001), wk =   0.0030720
        k(  685) = (   0.2000000   0.3925982   0.1966858), wk =   0.0030720
        k(  686) = (   0.2000000   0.3925982   0.2212716), wk =   0.0030720
        k(  687) = (   0.2000000   0.3925982   0.2458573), wk =   0.0030720
        k(  688) = (   0.2000000   0.3925982   0.2704430), wk =   0.0030720
        k(  689) = (   0.2000000   0.3925982   0.2950288), wk =   0.0030720
        k(  690) = (   0.2000000   0.4387862   0.0000000), wk =   0.0015360
        k(  691) = (   0.2000000   0.4387862   0.0245857), wk =   0.0030720
        k(  692) = (   0.2000000   0.4387862   0.0491715), wk =   0.0030720
        k(  693) = (   0.2000000   0.4387862   0.0737572), wk =   0.0030720
        k(  694) = (   0.2000000   0.4387862   0.0983429), wk =   0.0030720
        k(  695) = (   0.2000000   0.4387862   0.1229287), wk =   0.0030720
        k(  696) = (   0.2000000   0.4387862   0.1475144), wk =   0.0030720
        k(  697) = (   0.2000000   0.4387862   0.1721001), wk =   0.0030720
        k(  698) = (   0.2000000   0.4387862   0.1966858), wk =   0.0030720
        k(  699) = (   0.2000000   0.4387862   0.2212716), wk =   0.0030720
        k(  700) = (   0.2000000   0.4387862   0.2458573), wk =   0.0030720
        k(  701) = (   0.2000000   0.4387862   0.2704430), wk =   0.0030720
        k(  702) = (   0.2000000   0.4387862   0.2950288), wk =   0.0030720
        k(  703) = (   0.2000000   0.4849742   0.0000000), wk =   0.0015360
        k(  704) = (   0.2000000   0.4849742   0.0245857), wk =   0.0030720
        k(  705) = (   0.2000000   0.4849742   0.0491715), wk =   0.0030720
        k(  706) = (   0.2000000   0.4849742   0.0737572), wk =   0.0030720
        k(  707) = (   0.2000000   0.4849742   0.0983429), wk =   0.0030720
        k(  708) = (   0.2000000   0.4849742   0.1229287), wk =   0.0030720
        k(  709) = (   0.2000000   0.4849742   0.1475144), wk =   0.0030720
        k(  710) = (   0.2000000   0.4849742   0.1721001), wk =   0.0030720
        k(  711) = (   0.2000000   0.4849742   0.1966858), wk =   0.0030720
        k(  712) = (   0.2000000   0.4849742   0.2212716), wk =   0.0030720
        k(  713) = (   0.2000000   0.4849742   0.2458573), wk =   0.0030720
        k(  714) = (   0.2000000   0.4849742   0.2704430), wk =   0.0030720
        k(  715) = (   0.2000000   0.4849742   0.2950288), wk =   0.0030720
        k(  716) = (   0.2000000   0.5311622   0.0000000), wk =   0.0015360
        k(  717) = (   0.2000000   0.5311622   0.0245857), wk =   0.0030720
        k(  718) = (   0.2000000   0.5311622   0.0491715), wk =   0.0030720
        k(  719) = (   0.2000000   0.5311622   0.0737572), wk =   0.0030720
        k(  720) = (   0.2000000   0.5311622   0.0983429), wk =   0.0030720
        k(  721) = (   0.2000000   0.5311622   0.1229287), wk =   0.0030720
        k(  722) = (   0.2000000   0.5311622   0.1475144), wk =   0.0030720
        k(  723) = (   0.2000000   0.5311622   0.1721001), wk =   0.0030720
        k(  724) = (   0.2000000   0.5311622   0.1966858), wk =   0.0030720
        k(  725) = (   0.2000000   0.5311622   0.2212716), wk =   0.0030720
        k(  726) = (   0.2000000   0.5311622   0.2458573), wk =   0.0030720
        k(  727) = (   0.2000000   0.5311622   0.2704430), wk =   0.0030720
        k(  728) = (   0.2000000   0.5311622   0.2950288), wk =   0.0030720
        k(  729) = (   0.2000000   0.5773503   0.0000000), wk =   0.0007680
        k(  730) = (   0.2000000   0.5773503   0.0245857), wk =   0.0015360
        k(  731) = (   0.2000000   0.5773503   0.0491715), wk =   0.0015360
        k(  732) = (   0.2000000   0.5773503   0.0737572), wk =   0.0015360
        k(  733) = (   0.2000000   0.5773503   0.0983429), wk =   0.0015360
        k(  734) = (   0.2000000   0.5773503   0.1229287), wk =   0.0015360
        k(  735) = (   0.2000000   0.5773503   0.1475144), wk =   0.0015360
        k(  736) = (   0.2000000   0.5773503   0.1721001), wk =   0.0015360
        k(  737) = (   0.2000000   0.5773503   0.1966858), wk =   0.0015360
        k(  738) = (   0.2000000   0.5773503   0.2212716), wk =   0.0015360
        k(  739) = (   0.2000000   0.5773503   0.2458573), wk =   0.0015360
        k(  740) = (   0.2000000   0.5773503   0.2704430), wk =   0.0015360
        k(  741) = (   0.2000000   0.5773503   0.2950288), wk =   0.0015360
        k(  742) = (   0.2400000   0.4156922   0.0000000), wk =   0.0007680
        k(  743) = (   0.2400000   0.4156922   0.0245857), wk =   0.0015360
        k(  744) = (   0.2400000   0.4156922   0.0491715), wk =   0.0015360
        k(  745) = (   0.2400000   0.4156922   0.0737572), wk =   0.0015360
        k(  746) = (   0.2400000   0.4156922   0.0983429), wk =   0.0015360
        k(  747) = (   0.2400000   0.4156922   0.1229287), wk =   0.0015360
        k(  748) = (   0.2400000   0.4156922   0.1475144), wk =   0.0015360
        k(  749) = (   0.2400000   0.4156922   0.1721001), wk =   0.0015360
        k(  750) = (   0.2400000   0.4156922   0.1966858), wk =   0.0015360
        k(  751) = (   0.2400000   0.4156922   0.2212716), wk =   0.0015360
        k(  752) = (   0.2400000   0.4156922   0.2458573), wk =   0.0015360
        k(  753) = (   0.2400000   0.4156922   0.2704430), wk =   0.0015360
        k(  754) = (   0.2400000   0.4156922   0.2950288), wk =   0.0015360
        k(  755) = (   0.2400000   0.4618802   0.0000000), wk =   0.0015360
        k(  756) = (   0.2400000   0.4618802   0.0245857), wk =   0.0030720
        k(  757) = (   0.2400000   0.4618802   0.0491715), wk =   0.0030720
        k(  758) = (   0.2400000   0.4618802   0.0737572), wk =   0.0030720
        k(  759) = (   0.2400000   0.4618802   0.0983429), wk =   0.0030720
        k(  760) = (   0.2400000   0.4618802   0.1229287), wk =   0.0030720
        k(  761) = (   0.2400000   0.4618802   0.1475144), wk =   0.0030720
        k(  762) = (   0.2400000   0.4618802   0.1721001), wk =   0.0030720
        k(  763) = (   0.2400000   0.4618802   0.1966858), wk =   0.0030720
        k(  764) = (   0.2400000   0.4618802   0.2212716), wk =   0.0030720
        k(  765) = (   0.2400000   0.4618802   0.2458573), wk =   0.0030720
        k(  766) = (   0.2400000   0.4618802   0.2704430), wk =   0.0030720
        k(  767) = (   0.2400000   0.4618802   0.2950288), wk =   0.0030720
        k(  768) = (   0.2400000   0.5080682   0.0000000), wk =   0.0015360
        k(  769) = (   0.2400000   0.5080682   0.0245857), wk =   0.0030720
        k(  770) = (   0.2400000   0.5080682   0.0491715), wk =   0.0030720
        k(  771) = (   0.2400000   0.5080682   0.0737572), wk =   0.0030720
        k(  772) = (   0.2400000   0.5080682   0.0983429), wk =   0.0030720
        k(  773) = (   0.2400000   0.5080682   0.1229287), wk =   0.0030720
        k(  774) = (   0.2400000   0.5080682   0.1475144), wk =   0.0030720
        k(  775) = (   0.2400000   0.5080682   0.1721001), wk =   0.0030720
        k(  776) = (   0.2400000   0.5080682   0.1966858), wk =   0.0030720
        k(  777) = (   0.2400000   0.5080682   0.2212716), wk =   0.0030720
        k(  778) = (   0.2400000   0.5080682   0.2458573), wk =   0.0030720
        k(  779) = (   0.2400000   0.5080682   0.2704430), wk =   0.0030720
        k(  780) = (   0.2400000   0.5080682   0.2950288), wk =   0.0030720
        k(  781) = (   0.2400000   0.5542563   0.0000000), wk =   0.0015360
        k(  782) = (   0.2400000   0.5542563   0.0245857), wk =   0.0030720
        k(  783) = (   0.2400000   0.5542563   0.0491715), wk =   0.0030720
        k(  784) = (   0.2400000   0.5542563   0.0737572), wk =   0.0030720
        k(  785) = (   0.2400000   0.5542563   0.0983429), wk =   0.0030720
        k(  786) = (   0.2400000   0.5542563   0.1229287), wk =   0.0030720
        k(  787) = (   0.2400000   0.5542563   0.1475144), wk =   0.0030720
        k(  788) = (   0.2400000   0.5542563   0.1721001), wk =   0.0030720
        k(  789) = (   0.2400000   0.5542563   0.1966858), wk =   0.0030720
        k(  790) = (   0.2400000   0.5542563   0.2212716), wk =   0.0030720
        k(  791) = (   0.2400000   0.5542563   0.2458573), wk =   0.0030720
        k(  792) = (   0.2400000   0.5542563   0.2704430), wk =   0.0030720
        k(  793) = (   0.2400000   0.5542563   0.2950288), wk =   0.0030720
        k(  794) = (   0.2800000   0.4849742   0.0000000), wk =   0.0007680
        k(  795) = (   0.2800000   0.4849742   0.0245857), wk =   0.0015360
        k(  796) = (   0.2800000   0.4849742   0.0491715), wk =   0.0015360
        k(  797) = (   0.2800000   0.4849742   0.0737572), wk =   0.0015360
        k(  798) = (   0.2800000   0.4849742   0.0983429), wk =   0.0015360
        k(  799) = (   0.2800000   0.4849742   0.1229287), wk =   0.0015360
        k(  800) = (   0.2800000   0.4849742   0.1475144), wk =   0.0015360
        k(  801) = (   0.2800000   0.4849742   0.1721001), wk =   0.0015360
        k(  802) = (   0.2800000   0.4849742   0.1966858), wk =   0.0015360
        k(  803) = (   0.2800000   0.4849742   0.2212716), wk =   0.0015360
        k(  804) = (   0.2800000   0.4849742   0.2458573), wk =   0.0015360
        k(  805) = (   0.2800000   0.4849742   0.2704430), wk =   0.0015360
        k(  806) = (   0.2800000   0.4849742   0.2950288), wk =   0.0015360
        k(  807) = (   0.2800000   0.5311622   0.0000000), wk =   0.0015360
        k(  808) = (   0.2800000   0.5311622   0.0245857), wk =   0.0030720
        k(  809) = (   0.2800000   0.5311622   0.0491715), wk =   0.0030720
        k(  810) = (   0.2800000   0.5311622   0.0737572), wk =   0.0030720
        k(  811) = (   0.2800000   0.5311622   0.0983429), wk =   0.0030720
        k(  812) = (   0.2800000   0.5311622   0.1229287), wk =   0.0030720
        k(  813) = (   0.2800000   0.5311622   0.1475144), wk =   0.0030720
        k(  814) = (   0.2800000   0.5311622   0.1721001), wk =   0.0030720
        k(  815) = (   0.2800000   0.5311622   0.1966858), wk =   0.0030720
        k(  816) = (   0.2800000   0.5311622   0.2212716), wk =   0.0030720
        k(  817) = (   0.2800000   0.5311622   0.2458573), wk =   0.0030720
        k(  818) = (   0.2800000   0.5311622   0.2704430), wk =   0.0030720
        k(  819) = (   0.2800000   0.5311622   0.2950288), wk =   0.0030720
        k(  820) = (   0.2800000   0.5773503   0.0000000), wk =   0.0007680
        k(  821) = (   0.2800000   0.5773503   0.0245857), wk =   0.0015360
        k(  822) = (   0.2800000   0.5773503   0.0491715), wk =   0.0015360
        k(  823) = (   0.2800000   0.5773503   0.0737572), wk =   0.0015360
        k(  824) = (   0.2800000   0.5773503   0.0983429), wk =   0.0015360
        k(  825) = (   0.2800000   0.5773503   0.1229287), wk =   0.0015360
        k(  826) = (   0.2800000   0.5773503   0.1475144), wk =   0.0015360
        k(  827) = (   0.2800000   0.5773503   0.1721001), wk =   0.0015360
        k(  828) = (   0.2800000   0.5773503   0.1966858), wk =   0.0015360
        k(  829) = (   0.2800000   0.5773503   0.2212716), wk =   0.0015360
        k(  830) = (   0.2800000   0.5773503   0.2458573), wk =   0.0015360
        k(  831) = (   0.2800000   0.5773503   0.2704430), wk =   0.0015360
        k(  832) = (   0.2800000   0.5773503   0.2950288), wk =   0.0015360
        k(  833) = (   0.3200000   0.5542563   0.0000000), wk =   0.0007680
        k(  834) = (   0.3200000   0.5542563   0.0245857), wk =   0.0015360
        k(  835) = (   0.3200000   0.5542563   0.0491715), wk =   0.0015360
        k(  836) = (   0.3200000   0.5542563   0.0737572), wk =   0.0015360
        k(  837) = (   0.3200000   0.5542563   0.0983429), wk =   0.0015360
        k(  838) = (   0.3200000   0.5542563   0.1229287), wk =   0.0015360
        k(  839) = (   0.3200000   0.5542563   0.1475144), wk =   0.0015360
        k(  840) = (   0.3200000   0.5542563   0.1721001), wk =   0.0015360
        k(  841) = (   0.3200000   0.5542563   0.1966858), wk =   0.0015360
        k(  842) = (   0.3200000   0.5542563   0.2212716), wk =   0.0015360
        k(  843) = (   0.3200000   0.5542563   0.2458573), wk =   0.0015360
        k(  844) = (   0.3200000   0.5542563   0.2704430), wk =   0.0015360
        k(  845) = (   0.3200000   0.5542563   0.2950288), wk =   0.0015360

                       cryst. coord.
        k(    1) = (   0.0000000   0.0000000   0.0000000), wk =   0.0001280
        k(    2) = (   0.0000000   0.0000000   0.0400000), wk =   0.0002560
        k(    3) = (   0.0000000   0.0000000   0.0800000), wk =   0.0002560
        k(    4) = (   0.0000000   0.0000000   0.1200000), wk =   0.0002560
        k(    5) = (   0.0000000   0.0000000   0.1600000), wk =   0.0002560
        k(    6) = (   0.0000000   0.0000000   0.2000000), wk =   0.0002560
        k(    7) = (   0.0000000   0.0000000   0.2400000), wk =   0.0002560
        k(    8) = (   0.0000000   0.0000000   0.2800000), wk =   0.0002560
        k(    9) = (   0.0000000   0.0000000   0.3200000), wk =   0.0002560
        k(   10) = (   0.0000000   0.0000000   0.3600000), wk =   0.0002560
        k(   11) = (   0.0000000   0.0000000   0.4000000), wk =   0.0002560
        k(   12) = (   0.0000000   0.0000000   0.4400000), wk =   0.0002560
        k(   13) = (   0.0000000   0.0000000   0.4800000), wk =   0.0002560
        k(   14) = (   0.0000000   0.0400000   0.0000000), wk =   0.0007680
        k(   15) = (   0.0000000   0.0400000   0.0400000), wk =   0.0015360
        k(   16) = (   0.0000000   0.0400000   0.0800000), wk =   0.0015360
        k(   17) = (   0.0000000   0.0400000   0.1200000), wk =   0.0015360
        k(   18) = (   0.0000000   0.0400000   0.1600000), wk =   0.0015360
        k(   19) = (   0.0000000   0.0400000   0.2000000), wk =   0.0015360
        k(   20) = (   0.0000000   0.0400000   0.2400000), wk =   0.0015360
        k(   21) = (   0.0000000   0.0400000   0.2800000), wk =   0.0015360
        k(   22) = (   0.0000000   0.0400000   0.3200000), wk =   0.0015360
        k(   23) = (   0.0000000   0.0400000   0.3600000), wk =   0.0015360
        k(   24) = (   0.0000000   0.0400000   0.4000000), wk =   0.0015360
        k(   25) = (   0.0000000   0.0400000   0.4400000), wk =   0.0015360
        k(   26) = (   0.0000000   0.0400000   0.4800000), wk =   0.0015360
        k(   27) = (   0.0000000   0.0800000   0.0000000), wk =   0.0007680
        k(   28) = (   0.0000000   0.0800000   0.0400000), wk =   0.0015360
        k(   29) = (   0.0000000   0.0800000   0.0800000), wk =   0.0015360
        k(   30) = (   0.0000000   0.0800000   0.1200000), wk =   0.0015360
        k(   31) = (   0.0000000   0.0800000   0.1600000), wk =   0.0015360
        k(   32) = (   0.0000000   0.0800000   0.2000000), wk =   0.0015360
        k(   33) = (   0.0000000   0.0800000   0.2400000), wk =   0.0015360
        k(   34) = (   0.0000000   0.0800000   0.2800000), wk =   0.0015360
        k(   35) = (   0.0000000   0.0800000   0.3200000), wk =   0.0015360
        k(   36) = (   0.0000000   0.0800000   0.3600000), wk =   0.0015360
        k(   37) = (   0.0000000   0.0800000   0.4000000), wk =   0.0015360
        k(   38) = (   0.0000000   0.0800000   0.4400000), wk =   0.0015360
        k(   39) = (   0.0000000   0.0800000   0.4800000), wk =   0.0015360
        k(   40) = (   0.0000000   0.1200000   0.0000000), wk =   0.0007680
        k(   41) = (   0.0000000   0.1200000   0.0400000), wk =   0.0015360
        k(   42) = (   0.0000000   0.1200000   0.0800000), wk =   0.0015360
        k(   43) = (   0.0000000   0.1200000   0.1200000), wk =   0.0015360
        k(   44) = (   0.0000000   0.1200000   0.1600000), wk =   0.0015360
        k(   45) = (   0.0000000   0.1200000   0.2000000), wk =   0.0015360
        k(   46) = (   0.0000000   0.1200000   0.2400000), wk =   0.0015360
        k(   47) = (   0.0000000   0.1200000   0.2800000), wk =   0.0015360
        k(   48) = (   0.0000000   0.1200000   0.3200000), wk =   0.0015360
        k(   49) = (   0.0000000   0.1200000   0.3600000), wk =   0.0015360
        k(   50) = (   0.0000000   0.1200000   0.4000000), wk =   0.0015360
        k(   51) = (   0.0000000   0.1200000   0.4400000), wk =   0.0015360
        k(   52) = (   0.0000000   0.1200000   0.4800000), wk =   0.0015360
[...]
     1.0000   1.0000   1.0000   1.0000   1.0000   1.0000   1.0000   1.0000
     1.0000   1.0000   1.0000   1.0000   1.0000   1.0000   1.0000   1.0000
     1.0000   1.0000

          k = 0.2800 0.5312 0.0246 ( 14756 PWs)   bands (ev):

    -4.3806  -4.3305  -2.9292  -2.7622  -2.7263  -2.7202  -2.7071  -2.6923
    -2.6496  -2.6122  -1.0924  -0.7137   4.9988   5.2830   5.8204   7.2647
     8.0386   8.1087

     occupation numbers 
     1.0000   1.0000   1.0000   1.0000   1.0000   1.0000   1.0000   1.0000
     1.0000   1.0000   1.0000   1.0000   1.0000   1.0000   1.0000   1.0000
     1.0000   1.0000

          k = 0.2800 0.5312 0.0492 ( 14748 PWs)   bands (ev):

    -4.3779  -4.3291  -2.9262  -2.7678  -2.7339  -2.7203  -2.7026  -2.6873
    -2.6486  -2.6152  -1.0884  -0.7180   4.9578   5.2521   5.8081   7.3534
     8.0044   8.1741

     occupation numbers 
     1.0000   1.0000   1.0000   1.0000   1.0000   1.0000   1.0000   1.0000
     1.0000   1.0000   1.0000   1.0000   1.0000   1.0000   1.0000   1.0000
     1.0000   1.0000

          k = 0.2800 0.5312 0.0738 ( 14752 PWs)   bands (ev):

    -4.3736  -4.3268  -2.9212  -2.7752  -2.7436  -2.7208  -2.6968  -2.6821
    -2.6469  -2.6201  -1.0816  -0.7251   4.8946   5.2015   5.8013   7.4883
     7.9415   8.2816

     occupation numbers 
     1.0000   1.0000   1.0000   1.0000   1.0000   1.0000   1.0000   1.0000
     1.0000   1.0000   1.0000   1.0000   1.0000   1.0000   1.0000   1.0000
     1.0000   1.0000

          k = 0.2800 0.5312 0.0983 ( 14754 PWs)   bands (ev):

    -4.3678  -4.3238  -2.9143  -2.7835  -2.7540  -2.7220  -2.6909  -2.6774
    -2.6445  -2.6264  -1.0722  -0.7350   4.8173   5.1314   5.8115   7.6508
     7.8620   8.4164

     occupation numbers 
     1.0000   1.0000   1.0000   1.0000   1.0000   1.0000   1.0000   1.0000
     1.0000   1.0000   1.0000   1.0000   1.0000   1.0000   1.0000   1.0000
     1.0000   1.0000

          k = 0.2800 0.5312 0.1229 ( 14749 PWs)   bands (ev):

    -4.3609  -4.3204  -2.9056  -2.7918  -2.7646  -2.7238  -2.6860  -2.6732
    -2.6418  -2.6334  -1.0602  -0.7477   4.7350   5.0454   5.8442   7.7131
     7.8857   8.5657

     occupation numbers 
     1.0000   1.0000   1.0000   1.0000   1.0000   1.0000   1.0000   1.0000
     1.0000   1.0000   1.0000   1.0000   1.0000   1.0000   1.0000   1.0000
     1.0000   1.0000

          k = 0.2800 0.5312 0.1475 ( 14744 PWs)   bands (ev):

    -4.3533  -4.3169  -2.8952  -2.7996  -2.7751  -2.7268  -2.6828  -2.6697
    -2.6411  -2.6379  -1.0457  -0.7629   4.6555   4.9498   5.8994   7.6028
     8.0784   8.7177

     occupation numbers 
     1.0000   1.0000   1.0000   1.0000   1.0000   1.0000   1.0000   1.0000
     1.0000   1.0000   1.0000   1.0000   1.0000   1.0000   1.0000   1.0000
     1.0000   1.0000

          k = 0.2800 0.5312 0.1721 ( 14739 PWs)   bands (ev):

    -4.3452  -4.3135  -2.8833  -2.8067  -2.7851  -2.7315  -2.6810  -2.6680
    -2.6451  -2.6357  -1.0289  -0.7805   4.5845   4.8517   5.9747   7.4679
     8.2865   8.8620

     occupation numbers 
     1.0000   1.0000   1.0000   1.0000   1.0000   1.0000   1.0000   1.0000
     1.0000   1.0000   1.0000   1.0000   1.0000   1.0000   1.0000   1.0000
     1.0000   1.0000

          k = 0.2800 0.5312 0.1967 ( 14734 PWs)   bands (ev):

    -4.3371  -4.3105  -2.8702  -2.8127  -2.7942  -2.7384  -2.6802  -2.6696
    -2.6454  -2.6335  -1.0100  -0.8002   4.5262   4.7569   6.0671   7.3225
     8.4908   8.9884

     occupation numbers 
     1.0000   1.0000   1.0000   1.0000   1.0000   1.0000   1.0000   1.0000
     1.0000   1.0000   1.0000   1.0000   1.0000   1.0000   1.0000   1.0000
     1.0000   1.0000

          k = 0.2800 0.5312 0.2213 ( 14735 PWs)   bands (ev):

    -4.3294  -4.3084  -2.8562  -2.8174  -2.8021  -2.7478  -2.6800  -2.6729
    -2.6430  -2.6320  -0.9892  -0.8219   4.4833   4.6702   6.1744   7.1709
     8.6820   9.0880

     occupation numbers 
     1.0000   1.0000   1.0000   1.0000   1.0000   1.0000   1.0000   1.0000
     1.0000   1.0000   1.0000   1.0000   1.0000   1.0000   1.0000   1.0000
     1.0000   1.0000

          k = 0.2800 0.5312 0.2459 ( 14740 PWs)   bands (ev):

    -4.3225  -4.3073  -2.8419  -2.8205  -2.8081  -2.7596  -2.6800  -2.6759
    -2.6397  -2.6312  -0.9668  -0.8450   4.4575   4.5949   6.2943   7.0166
     8.8517   9.1531

     occupation numbers 
     1.0000   1.0000   1.0000   1.0000   1.0000   1.0000   1.0000   1.0000
     1.0000   1.0000   1.0000   1.0000   1.0000   1.0000   1.0000   1.0000
     1.0000   1.0000

          k = 0.2800 0.5312 0.2704 ( 14737 PWs)   bands (ev):

    -4.3167  -4.3075  -2.8298  -2.8219  -2.8100  -2.7733  -2.6800  -2.6779
    -2.6366  -2.6313  -0.9431  -0.8691   4.4496   4.5336   6.4250   6.8625
     8.9919   9.1778

     occupation numbers 
     1.0000   1.0000   1.0000   1.0000   1.0000   1.0000   1.0000   1.0000
     1.0000   1.0000   1.0000   1.0000   1.0000   1.0000   1.0000   1.0000
     1.0000   1.0000

          k = 0.2800 0.5312 0.2950 ( 14737 PWs)   bands (ev):

    -4.3121  -4.3091  -2.8248  -2.8229  -2.8020  -2.7880  -2.6798  -2.6792
    -2.6341  -2.6323  -0.9187  -0.8939   4.4599   4.4882   6.5646   6.7111
     9.0960   9.1588

     occupation numbers 
     1.0000   1.0000   1.0000   1.0000   1.0000   1.0000   1.0000   1.0000
     1.0000   1.0000   1.0000   1.0000   1.0000   1.0000   1.0000   1.0000
     1.0000   1.0000

          k = 0.2800 0.5774 0.0000 ( 14752 PWs)   bands (ev):

    -4.3716  -4.3350  -2.9317  -2.7571  -2.7207  -2.7142  -2.7094  -2.6958
    -2.6545  -2.6117  -0.9974  -0.7680   4.9892   5.4236   5.6243   7.3813
     7.9138   8.0290

     occupation numbers 
     1.0000   1.0000   1.0000   1.0000   1.0000   1.0000   1.0000   1.0000
     1.0000   1.0000   1.0000   1.0000   1.0000   1.0000   1.0000   1.0000
     1.0000   1.0000

          k = 0.2800 0.5774 0.0246 ( 14759 PWs)   bands (ev):

    -4.3708  -4.3345  -2.9307  -2.7592  -2.7239  -2.7157  -2.7076  -2.6916
    -2.6545  -2.6127  -0.9965  -0.7687   4.9777   5.4041   5.6249   7.4115
     7.9298   8.0251

     occupation numbers 
     1.0000   1.0000   1.0000   1.0000   1.0000   1.0000   1.0000   1.0000
     1.0000   1.0000   1.0000   1.0000   1.0000   1.0000   1.0000   1.0000
     1.0000   1.0000

          k = 0.2800 0.5774 0.0492 ( 14756 PWs)   bands (ev):

    -4.3683  -4.3329  -2.9277  -2.7646  -2.7326  -2.7169  -2.7032  -2.6838
    -2.6545  -2.6158  -0.9937  -0.7709   4.9435   5.3489   5.6300   7.4981
     7.9321   8.0559

     occupation numbers 
     1.0000   1.0000   1.0000   1.0000   1.0000   1.0000   1.0000   1.0000
     1.0000   1.0000   1.0000   1.0000   1.0000   1.0000   1.0000   1.0000
     1.0000   1.0000

          k = 0.2800 0.5774 0.0738 ( 14758 PWs)   bands (ev):

    -4.3643  -4.3304  -2.9226  -2.7719  -2.7433  -2.7178  -2.6974  -2.6757
    -2.6543  -2.6208  -0.9891  -0.7746   4.8890   5.2658   5.6464   7.6308
     7.8763   8.1585

     occupation numbers 
     1.0000   1.0000   1.0000   1.0000   1.0000   1.0000   1.0000   1.0000
     1.0000   1.0000   1.0000   1.0000   1.0000   1.0000   1.0000   1.0000
     1.0000   1.0000

          k = 0.2800 0.5774 0.0983 ( 14752 PWs)   bands (ev):

    -4.3590  -4.3271  -2.9156  -2.7800  -2.7544  -2.7191  -2.6916  -2.6682
    -2.6538  -2.6272  -0.9828  -0.7797   4.8195   5.1643   5.6793   7.7887
     7.7972   8.2979

     occupation numbers 
     1.0000   1.0000   1.0000   1.0000   1.0000   1.0000   1.0000   1.0000
     1.0000   1.0000   1.0000   1.0000   1.0000   1.0000   1.0000   1.0000
     1.0000   1.0000

          k = 0.2800 0.5774 0.1229 ( 14747 PWs)   bands (ev):

    -4.3527  -4.3233  -2.9068  -2.7882  -2.7656  -2.7212  -2.6862  -2.6619
    -2.6530  -2.6345  -0.9748  -0.7864   4.7423   5.0536   5.7304   7.6792
     7.9854   8.4551

     occupation numbers 
     1.0000   1.0000   1.0000   1.0000   1.0000   1.0000   1.0000   1.0000
     1.0000   1.0000   1.0000   1.0000   1.0000   1.0000   1.0000   1.0000
     1.0000   1.0000

          k = 0.2800 0.5774 0.1475 ( 14737 PWs)   bands (ev):

    -4.3457  -4.3192  -2.8964  -2.7960  -2.7765  -2.7245  -2.6818  -2.6574
    -2.6517  -2.6413  -0.9653  -0.7945   4.6649   4.9411   5.7991   7.5529
     8.1847   8.6177

     occupation numbers 
     1.0000   1.0000   1.0000   1.0000   1.0000   1.0000   1.0000   1.0000
     1.0000   1.0000   1.0000   1.0000   1.0000   1.0000   1.0000   1.0000
     1.0000   1.0000

          k = 0.2800 0.5774 0.1721 ( 14732 PWs)   bands (ev):

    -4.3383  -4.3152  -2.8843  -2.8031  -2.7867  -2.7295  -2.6786  -2.6577
    -2.6497  -2.6441  -0.9542  -0.8041   4.5935   4.8325   5.8839   7.4138
     8.3857   8.7747

     occupation numbers 
     1.0000   1.0000   1.0000   1.0000   1.0000   1.0000   1.0000   1.0000
     1.0000   1.0000   1.0000   1.0000   1.0000   1.0000   1.0000   1.0000
     1.0000   1.0000

          k = 0.2800 0.5774 0.1967 ( 14734 PWs)   bands (ev):

    -4.3310  -4.3117  -2.8710  -2.8092  -2.7960  -2.7370  -2.6766  -2.6623
    -2.6473  -2.6425  -0.9419  -0.8151   4.5326   4.7322   5.9834   7.2656
     8.5795   8.9161

     occupation numbers 
     1.0000   1.0000   1.0000   1.0000   1.0000   1.0000   1.0000   1.0000
     1.0000   1.0000   1.0000   1.0000   1.0000   1.0000   1.0000   1.0000
     1.0000   1.0000

          k = 0.2800 0.5774 0.2213 ( 14741 PWs)   bands (ev):

    -4.3242  -4.3088  -2.8566  -2.8138  -2.8042  -2.7470  -2.6755  -2.6669
    -2.6446  -2.6403  -0.9285  -0.8272   4.4856   4.6436   6.0959   7.1118
     8.7576   9.0327

     occupation numbers 
     1.0000   1.0000   1.0000   1.0000   1.0000   1.0000   1.0000   1.0000
     1.0000   1.0000   1.0000   1.0000   1.0000   1.0000   1.0000   1.0000
     1.0000   1.0000

          k = 0.2800 0.5774 0.2459 ( 14741 PWs)   bands (ev):

    -4.3181  -4.3070  -2.8419  -2.8163  -2.8110  -2.7594  -2.6750  -2.6704
    -2.6421  -2.6386  -0.9143  -0.8405   4.4547   4.5692   6.2199   6.9554
     8.9119   9.1165

     occupation numbers 
     1.0000   1.0000   1.0000   1.0000   1.0000   1.0000   1.0000   1.0000
     1.0000   1.0000   1.0000   1.0000   1.0000   1.0000   1.0000   1.0000
     1.0000   1.0000

          k = 0.2800 0.5774 0.2704 ( 14738 PWs)   bands (ev):

    -4.3131  -4.3064  -2.8291  -2.8164  -2.8147  -2.7737  -2.6747  -2.6725
    -2.6399  -2.6377  -0.8995  -0.8547   4.4413   4.5107   6.3539   6.7991
     9.0348   9.1611

     occupation numbers 
     1.0000   1.0000   1.0000   1.0000   1.0000   1.0000   1.0000   1.0000
     1.0000   1.0000   1.0000   1.0000   1.0000   1.0000   1.0000   1.0000
     1.0000   1.0000

          k = 0.2800 0.5774 0.2950 ( 14742 PWs)   bands (ev):

    -4.3094  -4.3072  -2.8234  -2.8204  -2.8040  -2.7889  -2.6744  -2.6738
    -2.6384  -2.6376  -0.8845  -0.8694   4.4462   4.4694   6.4963   6.6453
     9.1199   9.1626

     occupation numbers 
     1.0000   1.0000   1.0000   1.0000   1.0000   1.0000   1.0000   1.0000
     1.0000   1.0000   1.0000   1.0000   1.0000   1.0000   1.0000   1.0000
     1.0000   1.0000

          k = 0.3200 0.5543 0.0000 ( 14740 PWs)   bands (ev):

    -4.3606  -4.3418  -2.9336  -2.7411  -2.7255  -2.7184  -2.7052  -2.6995
    -2.6583  -2.6133  -0.9388  -0.7970   5.2170   5.2567   5.5145   7.5020
     7.8177   7.9389

     occupation numbers 
     1.0000   1.0000   1.0000   1.0000   1.0000   1.0000   1.0000   1.0000
     1.0000   1.0000   1.0000   1.0000   1.0000   1.0000   1.0000   1.0000
     1.0000   1.0000

          k = 0.3200 0.5543 0.0246 ( 14746 PWs)   bands (ev):

    -4.3599  -4.3412  -2.9326  -2.7441  -2.7293  -2.7184  -2.7026  -2.6962
    -2.6583  -2.6144  -0.9381  -0.7974   5.1982   5.2501   5.5096   7.5312
     7.8447   7.9247

     occupation numbers 
     1.0000   1.0000   1.0000   1.0000   1.0000   1.0000   1.0000   1.0000
     1.0000   1.0000   1.0000   1.0000   1.0000   1.0000   1.0000   1.0000
     1.0000   1.0000

          k = 0.3200 0.5543 0.0492 ( 14744 PWs)   bands (ev):

    -4.3576  -4.3394  -2.9295  -2.7513  -2.7377  -2.7185  -2.6965  -2.6896
    -2.6583  -2.6176  -0.9362  -0.7985   5.1452   5.2243   5.5040   7.6148
     7.8830   7.9224

     occupation numbers 
     1.0000   1.0000   1.0000   1.0000   1.0000   1.0000   1.0000   1.0000
     1.0000   1.0000   1.0000   1.0000   1.0000   1.0000   1.0000   1.0000
     1.0000   1.0000

          k = 0.3200 0.5543 0.0738 ( 14754 PWs)   bands (ev):

    -4.3540  -4.3365  -2.9244  -2.7602  -2.7476  -2.7191  -2.6890  -2.6826
    -2.6582  -2.6227  -0.9329  -0.8003   5.0671   5.1701   5.5148   7.7379
     7.8204   8.0412

     occupation numbers 
     1.0000   1.0000   1.0000   1.0000   1.0000   1.0000   1.0000   1.0000
     1.0000   1.0000   1.0000   1.0000   1.0000   1.0000   1.0000   1.0000
     1.0000   1.0000

          k = 0.3200 0.5543 0.0983 ( 14765 PWs)   bands (ev):

    -4.3492  -4.3328  -2.9174  -2.7696  -2.7580  -2.7201  -2.6814  -2.6764
    -2.6577  -2.6295  -0.9284  -0.8029   4.9742   5.0895   5.5497   7.7162
     7.9118   8.1894

     occupation numbers 
     1.0000   1.0000   1.0000   1.0000   1.0000   1.0000   1.0000   1.0000
     1.0000   1.0000   1.0000   1.0000   1.0000   1.0000   1.0000   1.0000
     1.0000   1.0000

          k = 0.3200 0.5543 0.1229 ( 14757 PWs)   bands (ev):

    -4.3435  -4.3284  -2.9085  -2.7790  -2.7684  -2.7219  -2.6742  -2.6721
    -2.6562  -2.6373  -0.9228  -0.8064   4.8762   4.9935   5.6065   7.6057
     8.0925   8.3550

     occupation numbers 
     1.0000   1.0000   1.0000   1.0000   1.0000   1.0000   1.0000   1.0000
     1.0000   1.0000   1.0000   1.0000   1.0000   1.0000   1.0000   1.0000
     1.0000   1.0000

          k = 0.3200 0.5543 0.1475 ( 14735 PWs)   bands (ev):

    -4.3373  -4.3237  -2.8978  -2.7880  -2.7784  -2.7250  -2.6699  -2.6677
    -2.6535  -2.6454  -0.9161  -0.8107   4.7805   4.8926   5.6815   7.4774
     8.2846   8.5267

     occupation numbers 
     1.0000   1.0000   1.0000   1.0000   1.0000   1.0000   1.0000   1.0000
     1.0000   1.0000   1.0000   1.0000   1.0000   1.0000   1.0000   1.0000
     1.0000   1.0000

          k = 0.3200 0.5543 0.1721 ( 14748 PWs)   bands (ev):

    -4.3308  -4.3189  -2.8856  -2.7962  -2.7877  -2.7300  -2.6693  -2.6630
    -2.6522  -2.6501  -0.9086  -0.8159   4.6926   4.7946   5.7721   7.3361
     8.4771   8.6944

     occupation numbers 
     1.0000   1.0000   1.0000   1.0000   1.0000   1.0000   1.0000   1.0000
     1.0000   1.0000   1.0000   1.0000   1.0000   1.0000   1.0000   1.0000
     1.0000   1.0000

          k = 0.3200 0.5543 0.1967 ( 14745 PWs)   bands (ev):

    -4.3244  -4.3145  -2.8720  -2.8033  -2.7962  -2.7374  -2.6697  -2.6638
    -2.6529  -2.6469  -0.9002  -0.8219   4.6166   4.7047   5.8765   7.1857
     8.6606   8.8484

     occupation numbers 
     1.0000   1.0000   1.0000   1.0000   1.0000   1.0000   1.0000   1.0000
     1.0000   1.0000   1.0000   1.0000   1.0000   1.0000   1.0000   1.0000
     1.0000   1.0000

          k = 0.3200 0.5543 0.2213 ( 14746 PWs)   bands (ev):

    -4.3186  -4.3107  -2.8572  -2.8092  -2.8034  -2.7476  -2.6705  -2.6678
    -2.6495  -2.6442  -0.8913  -0.8288   4.5553   4.6266   5.9933   7.0295
     8.8264   8.9797

     occupation numbers 
     1.0000   1.0000   1.0000   1.0000   1.0000   1.0000   1.0000   1.0000
     1.0000   1.0000   1.0000   1.0000   1.0000   1.0000   1.0000   1.0000
     1.0000   1.0000

          k = 0.3200 0.5543 0.2459 ( 14749 PWs)   bands (ev):

    -4.3136  -4.3079  -2.8416  -2.8137  -2.8091  -2.7604  -2.6714  -2.6708
    -2.6462  -2.6422  -0.8820  -0.8364   4.5107   4.5632   6.1210   6.8707
     8.9663   9.0800

     occupation numbers 
     1.0000   1.0000   1.0000   1.0000   1.0000   1.0000   1.0000   1.0000
     1.0000   1.0000   1.0000   1.0000   1.0000   1.0000   1.0000   1.0000
     1.0000   1.0000

          k = 0.3200 0.5543 0.2704 ( 14753 PWs)   bands (ev):

    -4.3097  -4.3062  -2.8258  -2.8165  -2.8127  -2.7750  -2.6724  -2.6722
    -2.6436  -2.6412  -0.8725  -0.8448   4.4841   4.5161   6.2583   6.7119
     9.0726   9.1428

     occupation numbers 
     1.0000   1.0000   1.0000   1.0000   1.0000   1.0000   1.0000   1.0000
     1.0000   1.0000   1.0000   1.0000   1.0000   1.0000   1.0000   1.0000
     1.0000   1.0000

          k = 0.3200 0.5543 0.2950 ( 14754 PWs)   bands (ev):

    -4.3071  -4.3059  -2.8177  -2.8177  -2.8067  -2.7909  -2.6729  -2.6728
    -2.6419  -2.6411  -0.8630  -0.8537   4.4761   4.4869   6.4037   6.5555
     9.1396   9.1633

     occupation numbers 
     1.0000   1.0000   1.0000   1.0000   1.0000   1.0000   1.0000   1.0000
     1.0000   1.0000   1.0000   1.0000   1.0000   1.0000   1.0000   1.0000
     1.0000   1.0000

     highest occupied level (ev):    10.6190

!    total energy              =    -347.51875569 Ry
     estimated scf accuracy    <       0.00000061 Ry

     The total energy is the sum of the following terms:
     one-electron contribution =    -105.66872039 Ry
     hartree contribution      =      87.58399543 Ry
     xc contribution           =     -96.27720383 Ry
     ewald contribution        =    -233.15682690 Ry

     convergence has been achieved in  18 iterations

     Writing output data file ../tmp/GaN_exc1.save/
 
     init_run     :     17.50s CPU     17.92s WALL (       1 calls)
     electrons    :    647.50s CPU    654.85s WALL (       1 calls)

     Called by init_run:
     wfcinit      :     16.41s CPU     16.77s WALL (       1 calls)
     wfcinit:atom :      0.45s CPU      0.46s WALL (     845 calls)
     wfcinit:wfcr :     13.53s CPU     13.69s WALL (     845 calls)
     potinit      :      0.16s CPU      0.16s WALL (       1 calls)
     hinit0       :      0.32s CPU      0.37s WALL (       1 calls)

     Called by electrons:
     c_bands      :    559.03s CPU    565.05s WALL (      18 calls)
     sum_band     :     87.93s CPU     89.17s WALL (      18 calls)
     v_of_rho     :      0.41s CPU      0.46s WALL (      19 calls)
     v_h          :      0.01s CPU      0.02s WALL (      19 calls)
     v_xc         :      0.39s CPU      0.44s WALL (      19 calls)
     mix_rho      :      0.12s CPU      0.15s WALL (      18 calls)

     Called by c_bands:
     init_us_2    :     26.33s CPU     26.97s WALL (   31265 calls)
     cegterg      :    474.15s CPU    479.45s WALL (   15210 calls)

     Called by sum_band:
     sum_band:wei :      0.00s CPU      0.00s WALL (      18 calls)
     sum_band:loo :     87.87s CPU     89.09s WALL (      18 calls)
     sum_band:buf :      2.50s CPU      2.58s WALL (   15210 calls)
     sum_band:ini :     13.03s CPU     13.26s WALL (   15210 calls)

     Called by *egterg:
     cdiaghg      :     32.16s CPU     32.40s WALL (   46152 calls)
     cegterg:over :     24.61s CPU     24.74s WALL (   30942 calls)
     cegterg:upda :     14.56s CPU     14.69s WALL (   30942 calls)
     cegterg:last :     22.22s CPU     22.35s WALL (   25814 calls)
     cdiaghg:chol :      3.87s CPU      3.90s WALL (   46152 calls)
     cdiaghg:inve :      0.81s CPU      0.83s WALL (   46152 calls)
     cdiaghg:para :      3.57s CPU      3.57s WALL (   92304 calls)
     h_psi        :    374.87s CPU    379.72s WALL (   46997 calls)
     g_psi        :      2.97s CPU      3.00s WALL (   30942 calls)

     Called by h_psi:
     h_psi:calbec :     25.19s CPU     25.50s WALL (   46997 calls)
     vloc_psi     :    310.01s CPU    314.35s WALL (   46997 calls)
     add_vuspsi   :     33.31s CPU     33.51s WALL (   46997 calls)

     General routines
     calbec       :     25.03s CPU     25.38s WALL (   46997 calls)
     fft          :      0.18s CPU      0.23s WALL (     190 calls)
     ffts         :      0.01s CPU      0.01s WALL (      18 calls)
     fftw         :    296.98s CPU    300.82s WALL ( 1608510 calls)
 
     Parallel routines
 
     PWSCF        :  11m 7.00s CPU  11m18.76s WALL

 
   This run was terminated on:  20: 6:55  27Mar2023            

=------------------------------------------------------------------------------=
   JOB DONE.
=------------------------------------------------------------------------------=
