
     Program PWSCF v.6.8 starts on 27Mar2023 at 20: 6:56 

     This program is part of the open-source Quantum ESPRESSO suite
     for quantum simulation of materials; please cite
         "P. Giannozzi et al., J. Phys.:Condens. Matter 21 395502 (2009);
         "P. Giannozzi et al., J. Phys.:Condens. Matter 29 465901 (2017);
         "P. Giannozzi et al., J. Chem. Phys. 152 154105 (2020);
          URL http://www.quantum-espresso.org", 
     in publications or presentations arising from this work. More details at
     http://www.quantum-espresso.org/quote

     Parallel version (MPI & OpenMP), running on       6 processor cores
     Number of MPI processes:                 6
     Threads/MPI process:                     1

     MPI processes distributed on     1 nodes
     R & G space division:  proc/nbgrp/npool/nimage =       6
     14835 MiB available memory on the printing compute node when the environment starts
 
     Waiting for input...
     Reading input from standard input
Warning: card &CELL ignored
Warning: card / ignored

     Current dimensions of program PWSCF are:
     Max number of different atomic species (ntypx) = 10
     Max number of k-points (npk) =  40000
     Max angular momentum in pseudopotentials (lmaxx) =  4

     Subspace diagonalization in iterative solution of the eigenvalue problem:
     one sub-group per band group will be used
     scalapack distributed-memory algorithm (size of sub-group:  2*  2 procs)

 
     Parallelization info
     --------------------
     sticks:   dense  smooth     PW     G-vecs:    dense   smooth      PW
     Min         332     332     93                19646    19646    2883
     Max         333     333     94                19651    19651    2888
     Sum        1993    1993    559               117881   117881   17309
 
     Using Slab Decomposition
 


     bravais-lattice index     =            4
     lattice parameter (alat)  =       6.0282  a.u.
     unit-cell volume          =     308.6570 (a.u.)^3
     number of atoms/cell      =            4
     number of atomic types    =            2
     number of electrons       =        36.00
     number of Kohn-Sham states=           18
     kinetic-energy cutoff     =     200.0000  Ry
     charge density cutoff     =     800.0000  Ry
     scf convergence threshold =      1.0E-06
     mixing beta               =       0.7000
     number of iterations used =            8  plain     mixing
     Exchange-correlation= PBE
                           (   1   4   3   4   0   0   0)

     celldm(1)=   6.028226  celldm(2)=   0.000000  celldm(3)=   1.626960
     celldm(4)=   0.000000  celldm(5)=   0.000000  celldm(6)=   0.000000

     crystal axes: (cart. coord. in units of alat)
               a(1) = (   1.000000   0.000000   0.000000 )  
               a(2) = (  -0.500000   0.866025   0.000000 )  
               a(3) = (   0.000000   0.000000   1.626960 )  

     reciprocal axes: (cart. coord. in units 2 pi/alat)
               b(1) = (  1.000000  0.577350  0.000000 )  
               b(2) = (  0.000000  1.154701  0.000000 )  
               b(3) = (  0.000000  0.000000  0.614643 )  


     PseudoPot. # 1 for Ga read from file:
     ../pseudo/Ga_ONCV_PBE_sr.upf
     MD5 check sum: e3654b1fbeb096be7359f640ef9d98d7
     Pseudo is Norm-conserving + core correction, Zval = 13.0
     Generated using ONCVPSP code by D. R. Hamann
     Using radial grid of 1902 points,  6 beta functions with: 
                l(1) =   0
                l(2) =   0
                l(3) =   1
                l(4) =   1
                l(5) =   2
                l(6) =   2

     PseudoPot. # 2 for N  read from file:
     ../pseudo/N_ONCV_PBE_sr.upf
     MD5 check sum: 18c6af81dac9c5a2d6d52ed11cf7bfee
     Pseudo is Norm-conserving + core correction, Zval =  5.0
     Generated using ONCVPSP code by D. R. Hamann
     Using radial grid of 1058 points,  4 beta functions with: 
                l(1) =   0
                l(2) =   0
                l(3) =   1
                l(4) =   1

     atomic species   valence    mass     pseudopotential
        Ga            13.00    69.72300     Ga( 1.00)
        N              5.00    14.00700     N ( 1.00)

     12 Sym. Ops. (no inversion) found ( 6 have fractional translation)


                                    s                        frac. trans.

      isym =  1     identity                                     

 cryst.   s( 1) = (     1          0          0      )
                  (     0          1          0      )
                  (     0          0          1      )

 cart.    s( 1) = (  1.0000000  0.0000000  0.0000000 )
                  (  0.0000000  1.0000000  0.0000000 )
                  (  0.0000000  0.0000000  1.0000000 )


      isym =  2     180 deg rotation - cart. axis [0,0,1]        

 cryst.   s( 2) = (    -1          0          0      )    f =(  0.0000000 )
                  (     0         -1          0      )       (  0.0000000 )
                  (     0          0          1      )       ( -0.5000000 )

 cart.    s( 2) = ( -1.0000000  0.0000000  0.0000000 )    f =(  0.0000000 )
                  (  0.0000000 -1.0000000  0.0000000 )       (  0.0000000 )
                  (  0.0000000  0.0000000  1.0000000 )       ( -0.8134800 )


      isym =  3      60 deg rotation - cryst. axis [0,0,1]       

 cryst.   s( 3) = (     1          1          0      )    f =(  0.0000000 )
                  (    -1          0          0      )       (  0.0000000 )
                  (     0          0          1      )       ( -0.5000000 )

 cart.    s( 3) = (  0.5000000 -0.8660254  0.0000000 )    f =(  0.0000000 )
                  (  0.8660254  0.5000000  0.0000000 )       (  0.0000000 )
                  (  0.0000000  0.0000000  1.0000000 )       ( -0.8134800 )


      isym =  4      60 deg rotation - cryst. axis [0,0,-1]      

 cryst.   s( 4) = (     0         -1          0      )    f =(  0.0000000 )
                  (     1          1          0      )       (  0.0000000 )
                  (     0          0          1      )       ( -0.5000000 )

 cart.    s( 4) = (  0.5000000  0.8660254  0.0000000 )    f =(  0.0000000 )
                  ( -0.8660254  0.5000000  0.0000000 )       (  0.0000000 )
                  (  0.0000000  0.0000000  1.0000000 )       ( -0.8134800 )


      isym =  5     120 deg rotation - cryst. axis [0,0,1]       

 cryst.   s( 5) = (     0          1          0      )
                  (    -1         -1          0      )
                  (     0          0          1      )

 cart.    s( 5) = ( -0.5000000 -0.8660254  0.0000000 )
                  (  0.8660254 -0.5000000  0.0000000 )
                  (  0.0000000  0.0000000  1.0000000 )


      isym =  6     120 deg rotation - cryst. axis [0,0,-1]      

 cryst.   s( 6) = (    -1         -1          0      )
                  (     1          0          0      )
                  (     0          0          1      )

 cart.    s( 6) = ( -0.5000000  0.8660254  0.0000000 )
                  ( -0.8660254 -0.5000000  0.0000000 )
                  (  0.0000000  0.0000000  1.0000000 )


      isym =  7     inv. 180 deg rotation - cart. axis [0,1,0]   

 cryst.   s( 7) = (     1          0          0      )    f =(  0.0000000 )
                  (    -1         -1          0      )       (  0.0000000 )
                  (     0          0          1      )       ( -0.5000000 )

 cart.    s( 7) = (  1.0000000  0.0000000  0.0000000 )    f =(  0.0000000 )
                  (  0.0000000 -1.0000000  0.0000000 )       (  0.0000000 )
                  (  0.0000000  0.0000000  1.0000000 )       ( -0.8134800 )


      isym =  8     inv. 180 deg rotation - cart. axis [1,0,0]   

 cryst.   s( 8) = (    -1          0          0      )
                  (     1          1          0      )
                  (     0          0          1      )

 cart.    s( 8) = ( -1.0000000  0.0000000  0.0000000 )
                  (  0.0000000  1.0000000  0.0000000 )
                  (  0.0000000  0.0000000  1.0000000 )


      isym =  9     inv. 180 deg rotation - cryst. axis [1,-1,0] 

 cryst.   s( 9) = (     0          1          0      )    f =(  0.0000000 )
                  (     1          0          0      )       (  0.0000000 )
                  (     0          0          1      )       ( -0.5000000 )

 cart.    s( 9) = ( -0.5000000  0.8660254  0.0000000 )    f =(  0.0000000 )
                  (  0.8660254  0.5000000  0.0000000 )       (  0.0000000 )
                  (  0.0000000  0.0000000  1.0000000 )       ( -0.8134800 )


      isym = 10     inv. 180 deg rotation - cryst. axis [2,1,0]  

 cryst.   s(10) = (    -1         -1          0      )    f =(  0.0000000 )
                  (     0          1          0      )       (  0.0000000 )
                  (     0          0          1      )       ( -0.5000000 )

 cart.    s(10) = ( -0.5000000 -0.8660254  0.0000000 )    f =(  0.0000000 )
                  ( -0.8660254  0.5000000  0.0000000 )       (  0.0000000 )
                  (  0.0000000  0.0000000  1.0000000 )       ( -0.8134800 )


      isym = 11     inv. 180 deg rotation - cryst. axis [0,1,0]  

 cryst.   s(11) = (     1          1          0      )
                  (     0         -1          0      )
                  (     0          0          1      )

 cart.    s(11) = (  0.5000000  0.8660254  0.0000000 )
                  (  0.8660254 -0.5000000  0.0000000 )
                  (  0.0000000  0.0000000  1.0000000 )


      isym = 12     inv. 180 deg rotation - cryst. axis [1,1,0]  

 cryst.   s(12) = (     0         -1          0      )
                  (    -1          0          0      )
                  (     0          0          1      )

 cart.    s(12) = (  0.5000000 -0.8660254  0.0000000 )
                  ( -0.8660254 -0.5000000  0.0000000 )
                  (  0.0000000  0.0000000  1.0000000 )


     point group C_6v (6mm) 
     there are  6 classes
     the character table:

       E     2C6   2C3   C2    3s_v  3s_d 
A_1    1.00  1.00  1.00  1.00  1.00  1.00
A_2    1.00  1.00  1.00  1.00 -1.00 -1.00
B_1    1.00 -1.00  1.00 -1.00  1.00 -1.00
B_2    1.00 -1.00  1.00 -1.00 -1.00  1.00
E_1    2.00  1.00 -1.00 -2.00  0.00  0.00
E_2    2.00 -1.00 -1.00  2.00  0.00  0.00

     the symmetry operations in each class and the name of the first element:

     E        1
          identity                                               
     2C6      3    4
           60 deg rotation - cryst. axis [0,0,1]                 
     2C3      5    6
          120 deg rotation - cryst. axis [0,0,1]                 
     C2       2
          180 deg rotation - cart. axis [0,0,1]                  
     3s_v     8   12   11
          inv. 180 deg rotation - cart. axis [1,0,0]             
     3s_d     7    9   10
          inv. 180 deg rotation - cart. axis [0,1,0]             

   Cartesian axes

     site n.     atom                  positions (alat units)
         1           Ga  tau(   1) = (   0.5000000   0.2886751   0.8119892  )
         2           Ga  tau(   2) = (   0.0000000   0.5773503   1.6254692  )
         3           N   tau(   3) = (   0.5000000   0.2886751   1.4250808  )
         4           N   tau(   4) = (   0.0000000   0.5773503   0.6116008  )

   Crystallographic axes

     site n.     atom                  positions (cryst. coord.)
         1           Ga  tau(   1) = (  0.6666667  0.3333333  0.4990837  )
         2           Ga  tau(   2) = (  0.3333333  0.6666667  0.9990837  )
         3           N   tau(   3) = (  0.6666667  0.3333333  0.8759163  )
         4           N   tau(   4) = (  0.3333333  0.6666667  0.3759163  )

     number of k points=  1456
                       cart. coord. in units 2pi/alat
        k(    1) = (   0.0000000   0.0000000   0.0000000), wk =   0.0000741
        k(    2) = (   0.0000000   0.0000000   0.0204881), wk =   0.0001481
        k(    3) = (   0.0000000   0.0000000   0.0409762), wk =   0.0001481
        k(    4) = (   0.0000000   0.0000000   0.0614643), wk =   0.0001481
        k(    5) = (   0.0000000   0.0000000   0.0819524), wk =   0.0001481
        k(    6) = (   0.0000000   0.0000000   0.1024405), wk =   0.0001481
        k(    7) = (   0.0000000   0.0000000   0.1229287), wk =   0.0001481
        k(    8) = (   0.0000000   0.0000000   0.1434168), wk =   0.0001481
        k(    9) = (   0.0000000   0.0000000   0.1639049), wk =   0.0001481
        k(   10) = (   0.0000000   0.0000000   0.1843930), wk =   0.0001481
        k(   11) = (   0.0000000   0.0000000   0.2048811), wk =   0.0001481
        k(   12) = (   0.0000000   0.0000000   0.2253692), wk =   0.0001481
        k(   13) = (   0.0000000   0.0000000   0.2458573), wk =   0.0001481
        k(   14) = (   0.0000000   0.0000000   0.2663454), wk =   0.0001481
        k(   15) = (   0.0000000   0.0000000   0.2868335), wk =   0.0001481
        k(   16) = (   0.0000000   0.0000000  -0.3073216), wk =   0.0000741
        k(   17) = (   0.0000000   0.0384900   0.0000000), wk =   0.0004444
        k(   18) = (   0.0000000   0.0384900   0.0204881), wk =   0.0008889
        k(   19) = (   0.0000000   0.0384900   0.0409762), wk =   0.0008889
        k(   20) = (   0.0000000   0.0384900   0.0614643), wk =   0.0008889
        k(   21) = (   0.0000000   0.0384900   0.0819524), wk =   0.0008889
        k(   22) = (   0.0000000   0.0384900   0.1024405), wk =   0.0008889
        k(   23) = (   0.0000000   0.0384900   0.1229287), wk =   0.0008889
        k(   24) = (   0.0000000   0.0384900   0.1434168), wk =   0.0008889
        k(   25) = (   0.0000000   0.0384900   0.1639049), wk =   0.0008889
        k(   26) = (   0.0000000   0.0384900   0.1843930), wk =   0.0008889
        k(   27) = (   0.0000000   0.0384900   0.2048811), wk =   0.0008889
        k(   28) = (   0.0000000   0.0384900   0.2253692), wk =   0.0008889
        k(   29) = (   0.0000000   0.0384900   0.2458573), wk =   0.0008889
        k(   30) = (   0.0000000   0.0384900   0.2663454), wk =   0.0008889
        k(   31) = (   0.0000000   0.0384900   0.2868335), wk =   0.0008889
        k(   32) = (   0.0000000   0.0384900  -0.3073216), wk =   0.0004444
        k(   33) = (   0.0000000   0.0769800   0.0000000), wk =   0.0004444
        k(   34) = (   0.0000000   0.0769800   0.0204881), wk =   0.0008889
        k(   35) = (   0.0000000   0.0769800   0.0409762), wk =   0.0008889
        k(   36) = (   0.0000000   0.0769800   0.0614643), wk =   0.0008889
        k(   37) = (   0.0000000   0.0769800   0.0819524), wk =   0.0008889
        k(   38) = (   0.0000000   0.0769800   0.1024405), wk =   0.0008889
        k(   39) = (   0.0000000   0.0769800   0.1229287), wk =   0.0008889
        k(   40) = (   0.0000000   0.0769800   0.1434168), wk =   0.0008889
        k(   41) = (   0.0000000   0.0769800   0.1639049), wk =   0.0008889
        k(   42) = (   0.0000000   0.0769800   0.1843930), wk =   0.0008889
        k(   43) = (   0.0000000   0.0769800   0.2048811), wk =   0.0008889
        k(   44) = (   0.0000000   0.0769800   0.2253692), wk =   0.0008889
        k(   45) = (   0.0000000   0.0769800   0.2458573), wk =   0.0008889
        k(   46) = (   0.0000000   0.0769800   0.2663454), wk =   0.0008889
        k(   47) = (   0.0000000   0.0769800   0.2868335), wk =   0.0008889
        k(   48) = (   0.0000000   0.0769800  -0.3073216), wk =   0.0004444
        k(   49) = (   0.0000000   0.1154701   0.0000000), wk =   0.0004444
        k(   50) = (   0.0000000   0.1154701   0.0204881), wk =   0.0008889
        k(   51) = (   0.0000000   0.1154701   0.0409762), wk =   0.0008889
        k(   52) = (   0.0000000   0.1154701   0.0614643), wk =   0.0008889
        k(   53) = (   0.0000000   0.1154701   0.0819524), wk =   0.0008889
        k(   54) = (   0.0000000   0.1154701   0.1024405), wk =   0.0008889
        k(   55) = (   0.0000000   0.1154701   0.1229287), wk =   0.0008889
        k(   56) = (   0.0000000   0.1154701   0.1434168), wk =   0.0008889
        k(   57) = (   0.0000000   0.1154701   0.1639049), wk =   0.0008889
        k(   58) = (   0.0000000   0.1154701   0.1843930), wk =   0.0008889
        k(   59) = (   0.0000000   0.1154701   0.2048811), wk =   0.0008889
        k(   60) = (   0.0000000   0.1154701   0.2253692), wk =   0.0008889
        k(   61) = (   0.0000000   0.1154701   0.2458573), wk =   0.0008889
        k(   62) = (   0.0000000   0.1154701   0.2663454), wk =   0.0008889
        k(   63) = (   0.0000000   0.1154701   0.2868335), wk =   0.0008889
        k(   64) = (   0.0000000   0.1154701  -0.3073216), wk =   0.0004444
        k(   65) = (   0.0000000   0.1539601   0.0000000), wk =   0.0004444
        k(   66) = (   0.0000000   0.1539601   0.0204881), wk =   0.0008889
        k(   67) = (   0.0000000   0.1539601   0.0409762), wk =   0.0008889
        k(   68) = (   0.0000000   0.1539601   0.0614643), wk =   0.0008889
        k(   69) = (   0.0000000   0.1539601   0.0819524), wk =   0.0008889
        k(   70) = (   0.0000000   0.1539601   0.1024405), wk =   0.0008889
        k(   71) = (   0.0000000   0.1539601   0.1229287), wk =   0.0008889
        k(   72) = (   0.0000000   0.1539601   0.1434168), wk =   0.0008889
        k(   73) = (   0.0000000   0.1539601   0.1639049), wk =   0.0008889
        k(   74) = (   0.0000000   0.1539601   0.1843930), wk =   0.0008889
        k(   75) = (   0.0000000   0.1539601   0.2048811), wk =   0.0008889
        k(   76) = (   0.0000000   0.1539601   0.2253692), wk =   0.0008889
        k(   77) = (   0.0000000   0.1539601   0.2458573), wk =   0.0008889
        k(   78) = (   0.0000000   0.1539601   0.2663454), wk =   0.0008889
        k(   79) = (   0.0000000   0.1539601   0.2868335), wk =   0.0008889
        k(   80) = (   0.0000000   0.1539601  -0.3073216), wk =   0.0004444
        k(   81) = (   0.0000000   0.1924501   0.0000000), wk =   0.0004444
        k(   82) = (   0.0000000   0.1924501   0.0204881), wk =   0.0008889
        k(   83) = (   0.0000000   0.1924501   0.0409762), wk =   0.0008889
        k(   84) = (   0.0000000   0.1924501   0.0614643), wk =   0.0008889
        k(   85) = (   0.0000000   0.1924501   0.0819524), wk =   0.0008889
        k(   86) = (   0.0000000   0.1924501   0.1024405), wk =   0.0008889
        k(   87) = (   0.0000000   0.1924501   0.1229287), wk =   0.0008889
        k(   88) = (   0.0000000   0.1924501   0.1434168), wk =   0.0008889
        k(   89) = (   0.0000000   0.1924501   0.1639049), wk =   0.0008889
        k(   90) = (   0.0000000   0.1924501   0.1843930), wk =   0.0008889
        k(   91) = (   0.0000000   0.1924501   0.2048811), wk =   0.0008889
        k(   92) = (   0.0000000   0.1924501   0.2253692), wk =   0.0008889
        k(   93) = (   0.0000000   0.1924501   0.2458573), wk =   0.0008889
        k(   94) = (   0.0000000   0.1924501   0.2663454), wk =   0.0008889
        k(   95) = (   0.0000000   0.1924501   0.2868335), wk =   0.0008889
        k(   96) = (   0.0000000   0.1924501  -0.3073216), wk =   0.0004444
        k(   97) = (   0.0000000   0.2309401   0.0000000), wk =   0.0004444
        k(   98) = (   0.0000000   0.2309401   0.0204881), wk =   0.0008889
        k(   99) = (   0.0000000   0.2309401   0.0409762), wk =   0.0008889
        k(  100) = (   0.0000000   0.2309401   0.0614643), wk =   0.0008889
        k(  101) = (   0.0000000   0.2309401   0.0819524), wk =   0.0008889
        k(  102) = (   0.0000000   0.2309401   0.1024405), wk =   0.0008889
        k(  103) = (   0.0000000   0.2309401   0.1229287), wk =   0.0008889
        k(  104) = (   0.0000000   0.2309401   0.1434168), wk =   0.0008889
        k(  105) = (   0.0000000   0.2309401   0.1639049), wk =   0.0008889
        k(  106) = (   0.0000000   0.2309401   0.1843930), wk =   0.0008889
        k(  107) = (   0.0000000   0.2309401   0.2048811), wk =   0.0008889
        k(  108) = (   0.0000000   0.2309401   0.2253692), wk =   0.0008889
        k(  109) = (   0.0000000   0.2309401   0.2458573), wk =   0.0008889
        k(  110) = (   0.0000000   0.2309401   0.2663454), wk =   0.0008889
        k(  111) = (   0.0000000   0.2309401   0.2868335), wk =   0.0008889
        k(  112) = (   0.0000000   0.2309401  -0.3073216), wk =   0.0004444
        k(  113) = (   0.0000000   0.2694301   0.0000000), wk =   0.0004444
        k(  114) = (   0.0000000   0.2694301   0.0204881), wk =   0.0008889
        k(  115) = (   0.0000000   0.2694301   0.0409762), wk =   0.0008889
        k(  116) = (   0.0000000   0.2694301   0.0614643), wk =   0.0008889
        k(  117) = (   0.0000000   0.2694301   0.0819524), wk =   0.0008889
        k(  118) = (   0.0000000   0.2694301   0.1024405), wk =   0.0008889
        k(  119) = (   0.0000000   0.2694301   0.1229287), wk =   0.0008889
        k(  120) = (   0.0000000   0.2694301   0.1434168), wk =   0.0008889
        k(  121) = (   0.0000000   0.2694301   0.1639049), wk =   0.0008889
        k(  122) = (   0.0000000   0.2694301   0.1843930), wk =   0.0008889
        k(  123) = (   0.0000000   0.2694301   0.2048811), wk =   0.0008889
        k(  124) = (   0.0000000   0.2694301   0.2253692), wk =   0.0008889
        k(  125) = (   0.0000000   0.2694301   0.2458573), wk =   0.0008889
        k(  126) = (   0.0000000   0.2694301   0.2663454), wk =   0.0008889
        k(  127) = (   0.0000000   0.2694301   0.2868335), wk =   0.0008889
        k(  128) = (   0.0000000   0.2694301  -0.3073216), wk =   0.0004444
        k(  129) = (   0.0000000   0.3079201   0.0000000), wk =   0.0004444
        k(  130) = (   0.0000000   0.3079201   0.0204881), wk =   0.0008889
        k(  131) = (   0.0000000   0.3079201   0.0409762), wk =   0.0008889
        k(  132) = (   0.0000000   0.3079201   0.0614643), wk =   0.0008889
        k(  133) = (   0.0000000   0.3079201   0.0819524), wk =   0.0008889
        k(  134) = (   0.0000000   0.3079201   0.1024405), wk =   0.0008889
        k(  135) = (   0.0000000   0.3079201   0.1229287), wk =   0.0008889
        k(  136) = (   0.0000000   0.3079201   0.1434168), wk =   0.0008889
        k(  137) = (   0.0000000   0.3079201   0.1639049), wk =   0.0008889
        k(  138) = (   0.0000000   0.3079201   0.1843930), wk =   0.0008889
        k(  139) = (   0.0000000   0.3079201   0.2048811), wk =   0.0008889
        k(  140) = (   0.0000000   0.3079201   0.2253692), wk =   0.0008889
        k(  141) = (   0.0000000   0.3079201   0.2458573), wk =   0.0008889
        k(  142) = (   0.0000000   0.3079201   0.2663454), wk =   0.0008889
        k(  143) = (   0.0000000   0.3079201   0.2868335), wk =   0.0008889
        k(  144) = (   0.0000000   0.3079201  -0.3073216), wk =   0.0004444
        k(  145) = (   0.0000000   0.3464102   0.0000000), wk =   0.0004444
        k(  146) = (   0.0000000   0.3464102   0.0204881), wk =   0.0008889
        k(  147) = (   0.0000000   0.3464102   0.0409762), wk =   0.0008889
        k(  148) = (   0.0000000   0.3464102   0.0614643), wk =   0.0008889
        k(  149) = (   0.0000000   0.3464102   0.0819524), wk =   0.0008889
        k(  150) = (   0.0000000   0.3464102   0.1024405), wk =   0.0008889
        k(  151) = (   0.0000000   0.3464102   0.1229287), wk =   0.0008889
        k(  152) = (   0.0000000   0.3464102   0.1434168), wk =   0.0008889
        k(  153) = (   0.0000000   0.3464102   0.1639049), wk =   0.0008889
        k(  154) = (   0.0000000   0.3464102   0.1843930), wk =   0.0008889
        k(  155) = (   0.0000000   0.3464102   0.2048811), wk =   0.0008889
        k(  156) = (   0.0000000   0.3464102   0.2253692), wk =   0.0008889
        k(  157) = (   0.0000000   0.3464102   0.2458573), wk =   0.0008889
        k(  158) = (   0.0000000   0.3464102   0.2663454), wk =   0.0008889
        k(  159) = (   0.0000000   0.3464102   0.2868335), wk =   0.0008889
        k(  160) = (   0.0000000   0.3464102  -0.3073216), wk =   0.0004444
        k(  161) = (   0.0000000   0.3849002   0.0000000), wk =   0.0004444
        k(  162) = (   0.0000000   0.3849002   0.0204881), wk =   0.0008889
        k(  163) = (   0.0000000   0.3849002   0.0409762), wk =   0.0008889
        k(  164) = (   0.0000000   0.3849002   0.0614643), wk =   0.0008889
        k(  165) = (   0.0000000   0.3849002   0.0819524), wk =   0.0008889
        k(  166) = (   0.0000000   0.3849002   0.1024405), wk =   0.0008889
        k(  167) = (   0.0000000   0.3849002   0.1229287), wk =   0.0008889
        k(  168) = (   0.0000000   0.3849002   0.1434168), wk =   0.0008889
        k(  169) = (   0.0000000   0.3849002   0.1639049), wk =   0.0008889
        k(  170) = (   0.0000000   0.3849002   0.1843930), wk =   0.0008889
        k(  171) = (   0.0000000   0.3849002   0.2048811), wk =   0.0008889
        k(  172) = (   0.0000000   0.3849002   0.2253692), wk =   0.0008889
        k(  173) = (   0.0000000   0.3849002   0.2458573), wk =   0.0008889
        k(  174) = (   0.0000000   0.3849002   0.2663454), wk =   0.0008889
        k(  175) = (   0.0000000   0.3849002   0.2868335), wk =   0.0008889
        k(  176) = (   0.0000000   0.3849002  -0.3073216), wk =   0.0004444
        k(  177) = (   0.0000000   0.4233902   0.0000000), wk =   0.0004444
        k(  178) = (   0.0000000   0.4233902   0.0204881), wk =   0.0008889
        k(  179) = (   0.0000000   0.4233902   0.0409762), wk =   0.0008889
        k(  180) = (   0.0000000   0.4233902   0.0614643), wk =   0.0008889
        k(  181) = (   0.0000000   0.4233902   0.0819524), wk =   0.0008889
        k(  182) = (   0.0000000   0.4233902   0.1024405), wk =   0.0008889
        k(  183) = (   0.0000000   0.4233902   0.1229287), wk =   0.0008889
        k(  184) = (   0.0000000   0.4233902   0.1434168), wk =   0.0008889
        k(  185) = (   0.0000000   0.4233902   0.1639049), wk =   0.0008889
        k(  186) = (   0.0000000   0.4233902   0.1843930), wk =   0.0008889
        k(  187) = (   0.0000000   0.4233902   0.2048811), wk =   0.0008889
        k(  188) = (   0.0000000   0.4233902   0.2253692), wk =   0.0008889
        k(  189) = (   0.0000000   0.4233902   0.2458573), wk =   0.0008889
        k(  190) = (   0.0000000   0.4233902   0.2663454), wk =   0.0008889
        k(  191) = (   0.0000000   0.4233902   0.2868335), wk =   0.0008889
        k(  192) = (   0.0000000   0.4233902  -0.3073216), wk =   0.0004444
        k(  193) = (   0.0000000   0.4618802   0.0000000), wk =   0.0004444
        k(  194) = (   0.0000000   0.4618802   0.0204881), wk =   0.0008889
        k(  195) = (   0.0000000   0.4618802   0.0409762), wk =   0.0008889
        k(  196) = (   0.0000000   0.4618802   0.0614643), wk =   0.0008889
        k(  197) = (   0.0000000   0.4618802   0.0819524), wk =   0.0008889
        k(  198) = (   0.0000000   0.4618802   0.1024405), wk =   0.0008889
        k(  199) = (   0.0000000   0.4618802   0.1229287), wk =   0.0008889
        k(  200) = (   0.0000000   0.4618802   0.1434168), wk =   0.0008889
        k(  201) = (   0.0000000   0.4618802   0.1639049), wk =   0.0008889
        k(  202) = (   0.0000000   0.4618802   0.1843930), wk =   0.0008889
        k(  203) = (   0.0000000   0.4618802   0.2048811), wk =   0.0008889
        k(  204) = (   0.0000000   0.4618802   0.2253692), wk =   0.0008889
        k(  205) = (   0.0000000   0.4618802   0.2458573), wk =   0.0008889
        k(  206) = (   0.0000000   0.4618802   0.2663454), wk =   0.0008889
        k(  207) = (   0.0000000   0.4618802   0.2868335), wk =   0.0008889
        k(  208) = (   0.0000000   0.4618802  -0.3073216), wk =   0.0004444
        k(  209) = (   0.0000000   0.5003702   0.0000000), wk =   0.0004444
        k(  210) = (   0.0000000   0.5003702   0.0204881), wk =   0.0008889
        k(  211) = (   0.0000000   0.5003702   0.0409762), wk =   0.0008889
        k(  212) = (   0.0000000   0.5003702   0.0614643), wk =   0.0008889
        k(  213) = (   0.0000000   0.5003702   0.0819524), wk =   0.0008889
        k(  214) = (   0.0000000   0.5003702   0.1024405), wk =   0.0008889
        k(  215) = (   0.0000000   0.5003702   0.1229287), wk =   0.0008889
        k(  216) = (   0.0000000   0.5003702   0.1434168), wk =   0.0008889
        k(  217) = (   0.0000000   0.5003702   0.1639049), wk =   0.0008889
        k(  218) = (   0.0000000   0.5003702   0.1843930), wk =   0.0008889
        k(  219) = (   0.0000000   0.5003702   0.2048811), wk =   0.0008889
        k(  220) = (   0.0000000   0.5003702   0.2253692), wk =   0.0008889
        k(  221) = (   0.0000000   0.5003702   0.2458573), wk =   0.0008889
        k(  222) = (   0.0000000   0.5003702   0.2663454), wk =   0.0008889
        k(  223) = (   0.0000000   0.5003702   0.2868335), wk =   0.0008889
        k(  224) = (   0.0000000   0.5003702  -0.3073216), wk =   0.0004444
        k(  225) = (   0.0000000   0.5388603   0.0000000), wk =   0.0004444
        k(  226) = (   0.0000000   0.5388603   0.0204881), wk =   0.0008889
        k(  227) = (   0.0000000   0.5388603   0.0409762), wk =   0.0008889
        k(  228) = (   0.0000000   0.5388603   0.0614643), wk =   0.0008889
        k(  229) = (   0.0000000   0.5388603   0.0819524), wk =   0.0008889
        k(  230) = (   0.0000000   0.5388603   0.1024405), wk =   0.0008889
        k(  231) = (   0.0000000   0.5388603   0.1229287), wk =   0.0008889
        k(  232) = (   0.0000000   0.5388603   0.1434168), wk =   0.0008889
        k(  233) = (   0.0000000   0.5388603   0.1639049), wk =   0.0008889
        k(  234) = (   0.0000000   0.5388603   0.1843930), wk =   0.0008889
        k(  235) = (   0.0000000   0.5388603   0.2048811), wk =   0.0008889
        k(  236) = (   0.0000000   0.5388603   0.2253692), wk =   0.0008889
        k(  237) = (   0.0000000   0.5388603   0.2458573), wk =   0.0008889
        k(  238) = (   0.0000000   0.5388603   0.2663454), wk =   0.0008889
        k(  239) = (   0.0000000   0.5388603   0.2868335), wk =   0.0008889
        k(  240) = (   0.0000000   0.5388603  -0.3073216), wk =   0.0004444
        k(  241) = (   0.0000000  -0.5773503   0.0000000), wk =   0.0002222
        k(  242) = (   0.0000000  -0.5773503   0.0204881), wk =   0.0004444
        k(  243) = (   0.0000000  -0.5773503   0.0409762), wk =   0.0004444
        k(  244) = (   0.0000000  -0.5773503   0.0614643), wk =   0.0004444
        k(  245) = (   0.0000000  -0.5773503   0.0819524), wk =   0.0004444
        k(  246) = (   0.0000000  -0.5773503   0.1024405), wk =   0.0004444
        k(  247) = (   0.0000000  -0.5773503   0.1229287), wk =   0.0004444
        k(  248) = (   0.0000000  -0.5773503   0.1434168), wk =   0.0004444
        k(  249) = (   0.0000000  -0.5773503   0.1639049), wk =   0.0004444
        k(  250) = (   0.0000000  -0.5773503   0.1843930), wk =   0.0004444
        k(  251) = (   0.0000000  -0.5773503   0.2048811), wk =   0.0004444
        k(  252) = (   0.0000000  -0.5773503   0.2253692), wk =   0.0004444
        k(  253) = (   0.0000000  -0.5773503   0.2458573), wk =   0.0004444
        k(  254) = (   0.0000000  -0.5773503   0.2663454), wk =   0.0004444
        k(  255) = (   0.0000000  -0.5773503   0.2868335), wk =   0.0004444
        k(  256) = (   0.0000000  -0.5773503  -0.3073216), wk =   0.0002222
        k(  257) = (   0.0333333   0.0577350   0.0000000), wk =   0.0004444
        k(  258) = (   0.0333333   0.0577350   0.0204881), wk =   0.0008889
        k(  259) = (   0.0333333   0.0577350   0.0409762), wk =   0.0008889
        k(  260) = (   0.0333333   0.0577350   0.0614643), wk =   0.0008889
        k(  261) = (   0.0333333   0.0577350   0.0819524), wk =   0.0008889
        k(  262) = (   0.0333333   0.0577350   0.1024405), wk =   0.0008889
        k(  263) = (   0.0333333   0.0577350   0.1229287), wk =   0.0008889
        k(  264) = (   0.0333333   0.0577350   0.1434168), wk =   0.0008889
        k(  265) = (   0.0333333   0.0577350   0.1639049), wk =   0.0008889
        k(  266) = (   0.0333333   0.0577350   0.1843930), wk =   0.0008889
        k(  267) = (   0.0333333   0.0577350   0.2048811), wk =   0.0008889
        k(  268) = (   0.0333333   0.0577350   0.2253692), wk =   0.0008889
        k(  269) = (   0.0333333   0.0577350   0.2458573), wk =   0.0008889
        k(  270) = (   0.0333333   0.0577350   0.2663454), wk =   0.0008889
        k(  271) = (   0.0333333   0.0577350   0.2868335), wk =   0.0008889
        k(  272) = (   0.0333333   0.0577350  -0.3073216), wk =   0.0004444
        k(  273) = (   0.0333333   0.0962250   0.0000000), wk =   0.0008889
        k(  274) = (   0.0333333   0.0962250   0.0204881), wk =   0.0017778
        k(  275) = (   0.0333333   0.0962250   0.0409762), wk =   0.0017778
        k(  276) = (   0.0333333   0.0962250   0.0614643), wk =   0.0017778
        k(  277) = (   0.0333333   0.0962250   0.0819524), wk =   0.0017778
        k(  278) = (   0.0333333   0.0962250   0.1024405), wk =   0.0017778
        k(  279) = (   0.0333333   0.0962250   0.1229287), wk =   0.0017778
        k(  280) = (   0.0333333   0.0962250   0.1434168), wk =   0.0017778
        k(  281) = (   0.0333333   0.0962250   0.1639049), wk =   0.0017778
        k(  282) = (   0.0333333   0.0962250   0.1843930), wk =   0.0017778
        k(  283) = (   0.0333333   0.0962250   0.2048811), wk =   0.0017778
        k(  284) = (   0.0333333   0.0962250   0.2253692), wk =   0.0017778
        k(  285) = (   0.0333333   0.0962250   0.2458573), wk =   0.0017778
        k(  286) = (   0.0333333   0.0962250   0.2663454), wk =   0.0017778
        k(  287) = (   0.0333333   0.0962250   0.2868335), wk =   0.0017778
        k(  288) = (   0.0333333   0.0962250  -0.3073216), wk =   0.0008889
        k(  289) = (   0.0333333   0.1347151   0.0000000), wk =   0.0008889
        k(  290) = (   0.0333333   0.1347151   0.0204881), wk =   0.0017778
        k(  291) = (   0.0333333   0.1347151   0.0409762), wk =   0.0017778
        k(  292) = (   0.0333333   0.1347151   0.0614643), wk =   0.0017778
        k(  293) = (   0.0333333   0.1347151   0.0819524), wk =   0.0017778
        k(  294) = (   0.0333333   0.1347151   0.1024405), wk =   0.0017778
        k(  295) = (   0.0333333   0.1347151   0.1229287), wk =   0.0017778
        k(  296) = (   0.0333333   0.1347151   0.1434168), wk =   0.0017778
        k(  297) = (   0.0333333   0.1347151   0.1639049), wk =   0.0017778
        k(  298) = (   0.0333333   0.1347151   0.1843930), wk =   0.0017778
        k(  299) = (   0.0333333   0.1347151   0.2048811), wk =   0.0017778
        k(  300) = (   0.0333333   0.1347151   0.2253692), wk =   0.0017778
        k(  301) = (   0.0333333   0.1347151   0.2458573), wk =   0.0017778
        k(  302) = (   0.0333333   0.1347151   0.2663454), wk =   0.0017778
        k(  303) = (   0.0333333   0.1347151   0.2868335), wk =   0.0017778
        k(  304) = (   0.0333333   0.1347151  -0.3073216), wk =   0.0008889
        k(  305) = (   0.0333333   0.1732051   0.0000000), wk =   0.0008889
        k(  306) = (   0.0333333   0.1732051   0.0204881), wk =   0.0017778
        k(  307) = (   0.0333333   0.1732051   0.0409762), wk =   0.0017778
        k(  308) = (   0.0333333   0.1732051   0.0614643), wk =   0.0017778
        k(  309) = (   0.0333333   0.1732051   0.0819524), wk =   0.0017778
        k(  310) = (   0.0333333   0.1732051   0.1024405), wk =   0.0017778
        k(  311) = (   0.0333333   0.1732051   0.1229287), wk =   0.0017778
        k(  312) = (   0.0333333   0.1732051   0.1434168), wk =   0.0017778
        k(  313) = (   0.0333333   0.1732051   0.1639049), wk =   0.0017778
        k(  314) = (   0.0333333   0.1732051   0.1843930), wk =   0.0017778
        k(  315) = (   0.0333333   0.1732051   0.2048811), wk =   0.0017778
        k(  316) = (   0.0333333   0.1732051   0.2253692), wk =   0.0017778
        k(  317) = (   0.0333333   0.1732051   0.2458573), wk =   0.0017778
        k(  318) = (   0.0333333   0.1732051   0.2663454), wk =   0.0017778
        k(  319) = (   0.0333333   0.1732051   0.2868335), wk =   0.0017778
        k(  320) = (   0.0333333   0.1732051  -0.3073216), wk =   0.0008889
        k(  321) = (   0.0333333   0.2116951   0.0000000), wk =   0.0008889
        k(  322) = (   0.0333333   0.2116951   0.0204881), wk =   0.0017778
        k(  323) = (   0.0333333   0.2116951   0.0409762), wk =   0.0017778
        k(  324) = (   0.0333333   0.2116951   0.0614643), wk =   0.0017778
        k(  325) = (   0.0333333   0.2116951   0.0819524), wk =   0.0017778
        k(  326) = (   0.0333333   0.2116951   0.1024405), wk =   0.0017778
        k(  327) = (   0.0333333   0.2116951   0.1229287), wk =   0.0017778
        k(  328) = (   0.0333333   0.2116951   0.1434168), wk =   0.0017778
        k(  329) = (   0.0333333   0.2116951   0.1639049), wk =   0.0017778
        k(  330) = (   0.0333333   0.2116951   0.1843930), wk =   0.0017778
        k(  331) = (   0.0333333   0.2116951   0.2048811), wk =   0.0017778
        k(  332) = (   0.0333333   0.2116951   0.2253692), wk =   0.0017778
        k(  333) = (   0.0333333   0.2116951   0.2458573), wk =   0.0017778
        k(  334) = (   0.0333333   0.2116951   0.2663454), wk =   0.0017778
        k(  335) = (   0.0333333   0.2116951   0.2868335), wk =   0.0017778
        k(  336) = (   0.0333333   0.2116951  -0.3073216), wk =   0.0008889
        k(  337) = (   0.0333333   0.2501851   0.0000000), wk =   0.0008889
        k(  338) = (   0.0333333   0.2501851   0.0204881), wk =   0.0017778
        k(  339) = (   0.0333333   0.2501851   0.0409762), wk =   0.0017778
        k(  340) = (   0.0333333   0.2501851   0.0614643), wk =   0.0017778
        k(  341) = (   0.0333333   0.2501851   0.0819524), wk =   0.0017778
        k(  342) = (   0.0333333   0.2501851   0.1024405), wk =   0.0017778
        k(  343) = (   0.0333333   0.2501851   0.1229287), wk =   0.0017778
        k(  344) = (   0.0333333   0.2501851   0.1434168), wk =   0.0017778
        k(  345) = (   0.0333333   0.2501851   0.1639049), wk =   0.0017778
        k(  346) = (   0.0333333   0.2501851   0.1843930), wk =   0.0017778
        k(  347) = (   0.0333333   0.2501851   0.2048811), wk =   0.0017778
        k(  348) = (   0.0333333   0.2501851   0.2253692), wk =   0.0017778
        k(  349) = (   0.0333333   0.2501851   0.2458573), wk =   0.0017778
        k(  350) = (   0.0333333   0.2501851   0.2663454), wk =   0.0017778
        k(  351) = (   0.0333333   0.2501851   0.2868335), wk =   0.0017778
        k(  352) = (   0.0333333   0.2501851  -0.3073216), wk =   0.0008889
        k(  353) = (   0.0333333   0.2886751   0.0000000), wk =   0.0008889
        k(  354) = (   0.0333333   0.2886751   0.0204881), wk =   0.0017778
        k(  355) = (   0.0333333   0.2886751   0.0409762), wk =   0.0017778
        k(  356) = (   0.0333333   0.2886751   0.0614643), wk =   0.0017778
        k(  357) = (   0.0333333   0.2886751   0.0819524), wk =   0.0017778
        k(  358) = (   0.0333333   0.2886751   0.1024405), wk =   0.0017778
        k(  359) = (   0.0333333   0.2886751   0.1229287), wk =   0.0017778
        k(  360) = (   0.0333333   0.2886751   0.1434168), wk =   0.0017778
        k(  361) = (   0.0333333   0.2886751   0.1639049), wk =   0.0017778
        k(  362) = (   0.0333333   0.2886751   0.1843930), wk =   0.0017778
        k(  363) = (   0.0333333   0.2886751   0.2048811), wk =   0.0017778
        k(  364) = (   0.0333333   0.2886751   0.2253692), wk =   0.0017778
        k(  365) = (   0.0333333   0.2886751   0.2458573), wk =   0.0017778
        k(  366) = (   0.0333333   0.2886751   0.2663454), wk =   0.0017778
        k(  367) = (   0.0333333   0.2886751   0.2868335), wk =   0.0017778
        k(  368) = (   0.0333333   0.2886751  -0.3073216), wk =   0.0008889
        k(  369) = (   0.0333333   0.3271652   0.0000000), wk =   0.0008889
        k(  370) = (   0.0333333   0.3271652   0.0204881), wk =   0.0017778
        k(  371) = (   0.0333333   0.3271652   0.0409762), wk =   0.0017778
        k(  372) = (   0.0333333   0.3271652   0.0614643), wk =   0.0017778
        k(  373) = (   0.0333333   0.3271652   0.0819524), wk =   0.0017778
        k(  374) = (   0.0333333   0.3271652   0.1024405), wk =   0.0017778
        k(  375) = (   0.0333333   0.3271652   0.1229287), wk =   0.0017778
        k(  376) = (   0.0333333   0.3271652   0.1434168), wk =   0.0017778
        k(  377) = (   0.0333333   0.3271652   0.1639049), wk =   0.0017778
        k(  378) = (   0.0333333   0.3271652   0.1843930), wk =   0.0017778
        k(  379) = (   0.0333333   0.3271652   0.2048811), wk =   0.0017778
        k(  380) = (   0.0333333   0.3271652   0.2253692), wk =   0.0017778
        k(  381) = (   0.0333333   0.3271652   0.2458573), wk =   0.0017778
        k(  382) = (   0.0333333   0.3271652   0.2663454), wk =   0.0017778
        k(  383) = (   0.0333333   0.3271652   0.2868335), wk =   0.0017778
        k(  384) = (   0.0333333   0.3271652  -0.3073216), wk =   0.0008889
        k(  385) = (   0.0333333   0.3656552   0.0000000), wk =   0.0008889
        k(  386) = (   0.0333333   0.3656552   0.0204881), wk =   0.0017778
        k(  387) = (   0.0333333   0.3656552   0.0409762), wk =   0.0017778
        k(  388) = (   0.0333333   0.3656552   0.0614643), wk =   0.0017778
        k(  389) = (   0.0333333   0.3656552   0.0819524), wk =   0.0017778
        k(  390) = (   0.0333333   0.3656552   0.1024405), wk =   0.0017778
        k(  391) = (   0.0333333   0.3656552   0.1229287), wk =   0.0017778
        k(  392) = (   0.0333333   0.3656552   0.1434168), wk =   0.0017778
        k(  393) = (   0.0333333   0.3656552   0.1639049), wk =   0.0017778
        k(  394) = (   0.0333333   0.3656552   0.1843930), wk =   0.0017778
        k(  395) = (   0.0333333   0.3656552   0.2048811), wk =   0.0017778
        k(  396) = (   0.0333333   0.3656552   0.2253692), wk =   0.0017778
        k(  397) = (   0.0333333   0.3656552   0.2458573), wk =   0.0017778
        k(  398) = (   0.0333333   0.3656552   0.2663454), wk =   0.0017778
        k(  399) = (   0.0333333   0.3656552   0.2868335), wk =   0.0017778
        k(  400) = (   0.0333333   0.3656552  -0.3073216), wk =   0.0008889
        k(  401) = (   0.0333333   0.4041452   0.0000000), wk =   0.0008889
        k(  402) = (   0.0333333   0.4041452   0.0204881), wk =   0.0017778
        k(  403) = (   0.0333333   0.4041452   0.0409762), wk =   0.0017778
        k(  404) = (   0.0333333   0.4041452   0.0614643), wk =   0.0017778
        k(  405) = (   0.0333333   0.4041452   0.0819524), wk =   0.0017778
        k(  406) = (   0.0333333   0.4041452   0.1024405), wk =   0.0017778
        k(  407) = (   0.0333333   0.4041452   0.1229287), wk =   0.0017778
        k(  408) = (   0.0333333   0.4041452   0.1434168), wk =   0.0017778
        k(  409) = (   0.0333333   0.4041452   0.1639049), wk =   0.0017778
        k(  410) = (   0.0333333   0.4041452   0.1843930), wk =   0.0017778
        k(  411) = (   0.0333333   0.4041452   0.2048811), wk =   0.0017778
        k(  412) = (   0.0333333   0.4041452   0.2253692), wk =   0.0017778
        k(  413) = (   0.0333333   0.4041452   0.2458573), wk =   0.0017778
        k(  414) = (   0.0333333   0.4041452   0.2663454), wk =   0.0017778
        k(  415) = (   0.0333333   0.4041452   0.2868335), wk =   0.0017778
        k(  416) = (   0.0333333   0.4041452  -0.3073216), wk =   0.0008889
        k(  417) = (   0.0333333   0.4426352   0.0000000), wk =   0.0008889
        k(  418) = (   0.0333333   0.4426352   0.0204881), wk =   0.0017778
        k(  419) = (   0.0333333   0.4426352   0.0409762), wk =   0.0017778
        k(  420) = (   0.0333333   0.4426352   0.0614643), wk =   0.0017778
        k(  421) = (   0.0333333   0.4426352   0.0819524), wk =   0.0017778
        k(  422) = (   0.0333333   0.4426352   0.1024405), wk =   0.0017778
        k(  423) = (   0.0333333   0.4426352   0.1229287), wk =   0.0017778
        k(  424) = (   0.0333333   0.4426352   0.1434168), wk =   0.0017778
        k(  425) = (   0.0333333   0.4426352   0.1639049), wk =   0.0017778
        k(  426) = (   0.0333333   0.4426352   0.1843930), wk =   0.0017778
        k(  427) = (   0.0333333   0.4426352   0.2048811), wk =   0.0017778
        k(  428) = (   0.0333333   0.4426352   0.2253692), wk =   0.0017778
        k(  429) = (   0.0333333   0.4426352   0.2458573), wk =   0.0017778
        k(  430) = (   0.0333333   0.4426352   0.2663454), wk =   0.0017778
        k(  431) = (   0.0333333   0.4426352   0.2868335), wk =   0.0017778
        k(  432) = (   0.0333333   0.4426352  -0.3073216), wk =   0.0008889
        k(  433) = (   0.0333333   0.4811252   0.0000000), wk =   0.0008889
        k(  434) = (   0.0333333   0.4811252   0.0204881), wk =   0.0017778
        k(  435) = (   0.0333333   0.4811252   0.0409762), wk =   0.0017778
        k(  436) = (   0.0333333   0.4811252   0.0614643), wk =   0.0017778
        k(  437) = (   0.0333333   0.4811252   0.0819524), wk =   0.0017778
        k(  438) = (   0.0333333   0.4811252   0.1024405), wk =   0.0017778
        k(  439) = (   0.0333333   0.4811252   0.1229287), wk =   0.0017778
        k(  440) = (   0.0333333   0.4811252   0.1434168), wk =   0.0017778
        k(  441) = (   0.0333333   0.4811252   0.1639049), wk =   0.0017778
        k(  442) = (   0.0333333   0.4811252   0.1843930), wk =   0.0017778
        k(  443) = (   0.0333333   0.4811252   0.2048811), wk =   0.0017778
        k(  444) = (   0.0333333   0.4811252   0.2253692), wk =   0.0017778
        k(  445) = (   0.0333333   0.4811252   0.2458573), wk =   0.0017778
        k(  446) = (   0.0333333   0.4811252   0.2663454), wk =   0.0017778
        k(  447) = (   0.0333333   0.4811252   0.2868335), wk =   0.0017778
        k(  448) = (   0.0333333   0.4811252  -0.3073216), wk =   0.0008889
        k(  449) = (   0.0333333   0.5196152   0.0000000), wk =   0.0008889
        k(  450) = (   0.0333333   0.5196152   0.0204881), wk =   0.0017778
        k(  451) = (   0.0333333   0.5196152   0.0409762), wk =   0.0017778
        k(  452) = (   0.0333333   0.5196152   0.0614643), wk =   0.0017778
        k(  453) = (   0.0333333   0.5196152   0.0819524), wk =   0.0017778
        k(  454) = (   0.0333333   0.5196152   0.1024405), wk =   0.0017778
        k(  455) = (   0.0333333   0.5196152   0.1229287), wk =   0.0017778
        k(  456) = (   0.0333333   0.5196152   0.1434168), wk =   0.0017778
        k(  457) = (   0.0333333   0.5196152   0.1639049), wk =   0.0017778
        k(  458) = (   0.0333333   0.5196152   0.1843930), wk =   0.0017778
        k(  459) = (   0.0333333   0.5196152   0.2048811), wk =   0.0017778
        k(  460) = (   0.0333333   0.5196152   0.2253692), wk =   0.0017778
        k(  461) = (   0.0333333   0.5196152   0.2458573), wk =   0.0017778
        k(  462) = (   0.0333333   0.5196152   0.2663454), wk =   0.0017778
        k(  463) = (   0.0333333   0.5196152   0.2868335), wk =   0.0017778
        k(  464) = (   0.0333333   0.5196152  -0.3073216), wk =   0.0008889
        k(  465) = (   0.0333333   0.5581053   0.0000000), wk =   0.0008889
        k(  466) = (   0.0333333   0.5581053   0.0204881), wk =   0.0017778
        k(  467) = (   0.0333333   0.5581053   0.0409762), wk =   0.0017778
        k(  468) = (   0.0333333   0.5581053   0.0614643), wk =   0.0017778
        k(  469) = (   0.0333333   0.5581053   0.0819524), wk =   0.0017778
        k(  470) = (   0.0333333   0.5581053   0.1024405), wk =   0.0017778
        k(  471) = (   0.0333333   0.5581053   0.1229287), wk =   0.0017778
        k(  472) = (   0.0333333   0.5581053   0.1434168), wk =   0.0017778
        k(  473) = (   0.0333333   0.5581053   0.1639049), wk =   0.0017778
        k(  474) = (   0.0333333   0.5581053   0.1843930), wk =   0.0017778
        k(  475) = (   0.0333333   0.5581053   0.2048811), wk =   0.0017778
        k(  476) = (   0.0333333   0.5581053   0.2253692), wk =   0.0017778
        k(  477) = (   0.0333333   0.5581053   0.2458573), wk =   0.0017778
        k(  478) = (   0.0333333   0.5581053   0.2663454), wk =   0.0017778
        k(  479) = (   0.0333333   0.5581053   0.2868335), wk =   0.0017778
        k(  480) = (   0.0333333   0.5581053  -0.3073216), wk =   0.0008889
        k(  481) = (   0.0666667   0.1154701   0.0000000), wk =   0.0004444
        k(  482) = (   0.0666667   0.1154701   0.0204881), wk =   0.0008889
        k(  483) = (   0.0666667   0.1154701   0.0409762), wk =   0.0008889
        k(  484) = (   0.0666667   0.1154701   0.0614643), wk =   0.0008889
        k(  485) = (   0.0666667   0.1154701   0.0819524), wk =   0.0008889
        k(  486) = (   0.0666667   0.1154701   0.1024405), wk =   0.0008889
        k(  487) = (   0.0666667   0.1154701   0.1229287), wk =   0.0008889
        k(  488) = (   0.0666667   0.1154701   0.1434168), wk =   0.0008889
        k(  489) = (   0.0666667   0.1154701   0.1639049), wk =   0.0008889
        k(  490) = (   0.0666667   0.1154701   0.1843930), wk =   0.0008889
        k(  491) = (   0.0666667   0.1154701   0.2048811), wk =   0.0008889
        k(  492) = (   0.0666667   0.1154701   0.2253692), wk =   0.0008889
        k(  493) = (   0.0666667   0.1154701   0.2458573), wk =   0.0008889
        k(  494) = (   0.0666667   0.1154701   0.2663454), wk =   0.0008889
        k(  495) = (   0.0666667   0.1154701   0.2868335), wk =   0.0008889
        k(  496) = (   0.0666667   0.1154701  -0.3073216), wk =   0.0004444
        k(  497) = (   0.0666667   0.1539601   0.0000000), wk =   0.0008889
        k(  498) = (   0.0666667   0.1539601   0.0204881), wk =   0.0017778
        k(  499) = (   0.0666667   0.1539601   0.0409762), wk =   0.0017778
        k(  500) = (   0.0666667   0.1539601   0.0614643), wk =   0.0017778
        k(  501) = (   0.0666667   0.1539601   0.0819524), wk =   0.0017778
        k(  502) = (   0.0666667   0.1539601   0.1024405), wk =   0.0017778
        k(  503) = (   0.0666667   0.1539601   0.1229287), wk =   0.0017778
        k(  504) = (   0.0666667   0.1539601   0.1434168), wk =   0.0017778
        k(  505) = (   0.0666667   0.1539601   0.1639049), wk =   0.0017778
        k(  506) = (   0.0666667   0.1539601   0.1843930), wk =   0.0017778
        k(  507) = (   0.0666667   0.1539601   0.2048811), wk =   0.0017778
        k(  508) = (   0.0666667   0.1539601   0.2253692), wk =   0.0017778
        k(  509) = (   0.0666667   0.1539601   0.2458573), wk =   0.0017778
        k(  510) = (   0.0666667   0.1539601   0.2663454), wk =   0.0017778
        k(  511) = (   0.0666667   0.1539601   0.2868335), wk =   0.0017778
        k(  512) = (   0.0666667   0.1539601  -0.3073216), wk =   0.0008889
        k(  513) = (   0.0666667   0.1924501   0.0000000), wk =   0.0008889
        k(  514) = (   0.0666667   0.1924501   0.0204881), wk =   0.0017778
        k(  515) = (   0.0666667   0.1924501   0.0409762), wk =   0.0017778
        k(  516) = (   0.0666667   0.1924501   0.0614643), wk =   0.0017778
        k(  517) = (   0.0666667   0.1924501   0.0819524), wk =   0.0017778
        k(  518) = (   0.0666667   0.1924501   0.1024405), wk =   0.0017778
        k(  519) = (   0.0666667   0.1924501   0.1229287), wk =   0.0017778
        k(  520) = (   0.0666667   0.1924501   0.1434168), wk =   0.0017778
        k(  521) = (   0.0666667   0.1924501   0.1639049), wk =   0.0017778
        k(  522) = (   0.0666667   0.1924501   0.1843930), wk =   0.0017778
        k(  523) = (   0.0666667   0.1924501   0.2048811), wk =   0.0017778
        k(  524) = (   0.0666667   0.1924501   0.2253692), wk =   0.0017778
        k(  525) = (   0.0666667   0.1924501   0.2458573), wk =   0.0017778
        k(  526) = (   0.0666667   0.1924501   0.2663454), wk =   0.0017778
        k(  527) = (   0.0666667   0.1924501   0.2868335), wk =   0.0017778
        k(  528) = (   0.0666667   0.1924501  -0.3073216), wk =   0.0008889
        k(  529) = (   0.0666667   0.2309401   0.0000000), wk =   0.0008889
        k(  530) = (   0.0666667   0.2309401   0.0204881), wk =   0.0017778
        k(  531) = (   0.0666667   0.2309401   0.0409762), wk =   0.0017778
        k(  532) = (   0.0666667   0.2309401   0.0614643), wk =   0.0017778
        k(  533) = (   0.0666667   0.2309401   0.0819524), wk =   0.0017778
        k(  534) = (   0.0666667   0.2309401   0.1024405), wk =   0.0017778
        k(  535) = (   0.0666667   0.2309401   0.1229287), wk =   0.0017778
        k(  536) = (   0.0666667   0.2309401   0.1434168), wk =   0.0017778
        k(  537) = (   0.0666667   0.2309401   0.1639049), wk =   0.0017778
        k(  538) = (   0.0666667   0.2309401   0.1843930), wk =   0.0017778
        k(  539) = (   0.0666667   0.2309401   0.2048811), wk =   0.0017778
        k(  540) = (   0.0666667   0.2309401   0.2253692), wk =   0.0017778
        k(  541) = (   0.0666667   0.2309401   0.2458573), wk =   0.0017778
        k(  542) = (   0.0666667   0.2309401   0.2663454), wk =   0.0017778
        k(  543) = (   0.0666667   0.2309401   0.2868335), wk =   0.0017778
        k(  544) = (   0.0666667   0.2309401  -0.3073216), wk =   0.0008889
        k(  545) = (   0.0666667   0.2694301   0.0000000), wk =   0.0008889
        k(  546) = (   0.0666667   0.2694301   0.0204881), wk =   0.0017778
        k(  547) = (   0.0666667   0.2694301   0.0409762), wk =   0.0017778
        k(  548) = (   0.0666667   0.2694301   0.0614643), wk =   0.0017778
        k(  549) = (   0.0666667   0.2694301   0.0819524), wk =   0.0017778
        k(  550) = (   0.0666667   0.2694301   0.1024405), wk =   0.0017778
        k(  551) = (   0.0666667   0.2694301   0.1229287), wk =   0.0017778
        k(  552) = (   0.0666667   0.2694301   0.1434168), wk =   0.0017778
        k(  553) = (   0.0666667   0.2694301   0.1639049), wk =   0.0017778
        k(  554) = (   0.0666667   0.2694301   0.1843930), wk =   0.0017778
        k(  555) = (   0.0666667   0.2694301   0.2048811), wk =   0.0017778
        k(  556) = (   0.0666667   0.2694301   0.2253692), wk =   0.0017778
        k(  557) = (   0.0666667   0.2694301   0.2458573), wk =   0.0017778
        k(  558) = (   0.0666667   0.2694301   0.2663454), wk =   0.0017778
        k(  559) = (   0.0666667   0.2694301   0.2868335), wk =   0.0017778
        k(  560) = (   0.0666667   0.2694301  -0.3073216), wk =   0.0008889
        k(  561) = (   0.0666667   0.3079201   0.0000000), wk =   0.0008889
        k(  562) = (   0.0666667   0.3079201   0.0204881), wk =   0.0017778
        k(  563) = (   0.0666667   0.3079201   0.0409762), wk =   0.0017778
        k(  564) = (   0.0666667   0.3079201   0.0614643), wk =   0.0017778
        k(  565) = (   0.0666667   0.3079201   0.0819524), wk =   0.0017778
        k(  566) = (   0.0666667   0.3079201   0.1024405), wk =   0.0017778
        k(  567) = (   0.0666667   0.3079201   0.1229287), wk =   0.0017778
        k(  568) = (   0.0666667   0.3079201   0.1434168), wk =   0.0017778
        k(  569) = (   0.0666667   0.3079201   0.1639049), wk =   0.0017778
        k(  570) = (   0.0666667   0.3079201   0.1843930), wk =   0.0017778
        k(  571) = (   0.0666667   0.3079201   0.2048811), wk =   0.0017778
        k(  572) = (   0.0666667   0.3079201   0.2253692), wk =   0.0017778
        k(  573) = (   0.0666667   0.3079201   0.2458573), wk =   0.0017778
        k(  574) = (   0.0666667   0.3079201   0.2663454), wk =   0.0017778
        k(  575) = (   0.0666667   0.3079201   0.2868335), wk =   0.0017778
        k(  576) = (   0.0666667   0.3079201  -0.3073216), wk =   0.0008889
        k(  577) = (   0.0666667   0.3464102   0.0000000), wk =   0.0008889
        k(  578) = (   0.0666667   0.3464102   0.0204881), wk =   0.0017778
        k(  579) = (   0.0666667   0.3464102   0.0409762), wk =   0.0017778
        k(  580) = (   0.0666667   0.3464102   0.0614643), wk =   0.0017778
        k(  581) = (   0.0666667   0.3464102   0.0819524), wk =   0.0017778
        k(  582) = (   0.0666667   0.3464102   0.1024405), wk =   0.0017778
        k(  583) = (   0.0666667   0.3464102   0.1229287), wk =   0.0017778
        k(  584) = (   0.0666667   0.3464102   0.1434168), wk =   0.0017778
        k(  585) = (   0.0666667   0.3464102   0.1639049), wk =   0.0017778
        k(  586) = (   0.0666667   0.3464102   0.1843930), wk =   0.0017778
        k(  587) = (   0.0666667   0.3464102   0.2048811), wk =   0.0017778
        k(  588) = (   0.0666667   0.3464102   0.2253692), wk =   0.0017778
        k(  589) = (   0.0666667   0.3464102   0.2458573), wk =   0.0017778
        k(  590) = (   0.0666667   0.3464102   0.2663454), wk =   0.0017778
        k(  591) = (   0.0666667   0.3464102   0.2868335), wk =   0.0017778
        k(  592) = (   0.0666667   0.3464102  -0.3073216), wk =   0.0008889
        k(  593) = (   0.0666667   0.3849002   0.0000000), wk =   0.0008889
        k(  594) = (   0.0666667   0.3849002   0.0204881), wk =   0.0017778
        k(  595) = (   0.0666667   0.3849002   0.0409762), wk =   0.0017778
        k(  596) = (   0.0666667   0.3849002   0.0614643), wk =   0.0017778
        k(  597) = (   0.0666667   0.3849002   0.0819524), wk =   0.0017778
        k(  598) = (   0.0666667   0.3849002   0.1024405), wk =   0.0017778
        k(  599) = (   0.0666667   0.3849002   0.1229287), wk =   0.0017778
        k(  600) = (   0.0666667   0.3849002   0.1434168), wk =   0.0017778
        k(  601) = (   0.0666667   0.3849002   0.1639049), wk =   0.0017778
        k(  602) = (   0.0666667   0.3849002   0.1843930), wk =   0.0017778
        k(  603) = (   0.0666667   0.3849002   0.2048811), wk =   0.0017778
        k(  604) = (   0.0666667   0.3849002   0.2253692), wk =   0.0017778
        k(  605) = (   0.0666667   0.3849002   0.2458573), wk =   0.0017778
        k(  606) = (   0.0666667   0.3849002   0.2663454), wk =   0.0017778
        k(  607) = (   0.0666667   0.3849002   0.2868335), wk =   0.0017778
        k(  608) = (   0.0666667   0.3849002  -0.3073216), wk =   0.0008889
        k(  609) = (   0.0666667   0.4233902   0.0000000), wk =   0.0008889
        k(  610) = (   0.0666667   0.4233902   0.0204881), wk =   0.0017778
        k(  611) = (   0.0666667   0.4233902   0.0409762), wk =   0.0017778
        k(  612) = (   0.0666667   0.4233902   0.0614643), wk =   0.0017778
        k(  613) = (   0.0666667   0.4233902   0.0819524), wk =   0.0017778
        k(  614) = (   0.0666667   0.4233902   0.1024405), wk =   0.0017778
        k(  615) = (   0.0666667   0.4233902   0.1229287), wk =   0.0017778
        k(  616) = (   0.0666667   0.4233902   0.1434168), wk =   0.0017778
        k(  617) = (   0.0666667   0.4233902   0.1639049), wk =   0.0017778
        k(  618) = (   0.0666667   0.4233902   0.1843930), wk =   0.0017778
        k(  619) = (   0.0666667   0.4233902   0.2048811), wk =   0.0017778
        k(  620) = (   0.0666667   0.4233902   0.2253692), wk =   0.0017778
        k(  621) = (   0.0666667   0.4233902   0.2458573), wk =   0.0017778
        k(  622) = (   0.0666667   0.4233902   0.2663454), wk =   0.0017778
        k(  623) = (   0.0666667   0.4233902   0.2868335), wk =   0.0017778
        k(  624) = (   0.0666667   0.4233902  -0.3073216), wk =   0.0008889
        k(  625) = (   0.0666667   0.4618802   0.0000000), wk =   0.0008889
        k(  626) = (   0.0666667   0.4618802   0.0204881), wk =   0.0017778
        k(  627) = (   0.0666667   0.4618802   0.0409762), wk =   0.0017778
        k(  628) = (   0.0666667   0.4618802   0.0614643), wk =   0.0017778
        k(  629) = (   0.0666667   0.4618802   0.0819524), wk =   0.0017778
        k(  630) = (   0.0666667   0.4618802   0.1024405), wk =   0.0017778
        k(  631) = (   0.0666667   0.4618802   0.1229287), wk =   0.0017778
        k(  632) = (   0.0666667   0.4618802   0.1434168), wk =   0.0017778
        k(  633) = (   0.0666667   0.4618802   0.1639049), wk =   0.0017778
        k(  634) = (   0.0666667   0.4618802   0.1843930), wk =   0.0017778
        k(  635) = (   0.0666667   0.4618802   0.2048811), wk =   0.0017778
        k(  636) = (   0.0666667   0.4618802   0.2253692), wk =   0.0017778
        k(  637) = (   0.0666667   0.4618802   0.2458573), wk =   0.0017778
        k(  638) = (   0.0666667   0.4618802   0.2663454), wk =   0.0017778
        k(  639) = (   0.0666667   0.4618802   0.2868335), wk =   0.0017778
        k(  640) = (   0.0666667   0.4618802  -0.3073216), wk =   0.0008889
        k(  641) = (   0.0666667   0.5003702   0.0000000), wk =   0.0008889
        k(  642) = (   0.0666667   0.5003702   0.0204881), wk =   0.0017778
        k(  643) = (   0.0666667   0.5003702   0.0409762), wk =   0.0017778
        k(  644) = (   0.0666667   0.5003702   0.0614643), wk =   0.0017778
        k(  645) = (   0.0666667   0.5003702   0.0819524), wk =   0.0017778
        k(  646) = (   0.0666667   0.5003702   0.1024405), wk =   0.0017778
        k(  647) = (   0.0666667   0.5003702   0.1229287), wk =   0.0017778
        k(  648) = (   0.0666667   0.5003702   0.1434168), wk =   0.0017778
        k(  649) = (   0.0666667   0.5003702   0.1639049), wk =   0.0017778
        k(  650) = (   0.0666667   0.5003702   0.1843930), wk =   0.0017778
        k(  651) = (   0.0666667   0.5003702   0.2048811), wk =   0.0017778
        k(  652) = (   0.0666667   0.5003702   0.2253692), wk =   0.0017778
        k(  653) = (   0.0666667   0.5003702   0.2458573), wk =   0.0017778
        k(  654) = (   0.0666667   0.5003702   0.2663454), wk =   0.0017778
        k(  655) = (   0.0666667   0.5003702   0.2868335), wk =   0.0017778
        k(  656) = (   0.0666667   0.5003702  -0.3073216), wk =   0.0008889
        k(  657) = (   0.0666667   0.5388603   0.0000000), wk =   0.0008889
        k(  658) = (   0.0666667   0.5388603   0.0204881), wk =   0.0017778
        k(  659) = (   0.0666667   0.5388603   0.0409762), wk =   0.0017778
        k(  660) = (   0.0666667   0.5388603   0.0614643), wk =   0.0017778
        k(  661) = (   0.0666667   0.5388603   0.0819524), wk =   0.0017778
        k(  662) = (   0.0666667   0.5388603   0.1024405), wk =   0.0017778
        k(  663) = (   0.0666667   0.5388603   0.1229287), wk =   0.0017778
        k(  664) = (   0.0666667   0.5388603   0.1434168), wk =   0.0017778
        k(  665) = (   0.0666667   0.5388603   0.1639049), wk =   0.0017778
        k(  666) = (   0.0666667   0.5388603   0.1843930), wk =   0.0017778
        k(  667) = (   0.0666667   0.5388603   0.2048811), wk =   0.0017778
        k(  668) = (   0.0666667   0.5388603   0.2253692), wk =   0.0017778
        k(  669) = (   0.0666667   0.5388603   0.2458573), wk =   0.0017778
        k(  670) = (   0.0666667   0.5388603   0.2663454), wk =   0.0017778
        k(  671) = (   0.0666667   0.5388603   0.2868335), wk =   0.0017778
        k(  672) = (   0.0666667   0.5388603  -0.3073216), wk =   0.0008889
        k(  673) = (   0.0666667   0.5773503   0.0000000), wk =   0.0004444
        k(  674) = (   0.0666667   0.5773503   0.0204881), wk =   0.0008889
        k(  675) = (   0.0666667   0.5773503   0.0409762), wk =   0.0008889
        k(  676) = (   0.0666667   0.5773503   0.0614643), wk =   0.0008889
        k(  677) = (   0.0666667   0.5773503   0.0819524), wk =   0.0008889
        k(  678) = (   0.0666667   0.5773503   0.1024405), wk =   0.0008889
        k(  679) = (   0.0666667   0.5773503   0.1229287), wk =   0.0008889
        k(  680) = (   0.0666667   0.5773503   0.1434168), wk =   0.0008889
        k(  681) = (   0.0666667   0.5773503   0.1639049), wk =   0.0008889
        k(  682) = (   0.0666667   0.5773503   0.1843930), wk =   0.0008889
        k(  683) = (   0.0666667   0.5773503   0.2048811), wk =   0.0008889
        k(  684) = (   0.0666667   0.5773503   0.2253692), wk =   0.0008889
        k(  685) = (   0.0666667   0.5773503   0.2458573), wk =   0.0008889
        k(  686) = (   0.0666667   0.5773503   0.2663454), wk =   0.0008889
        k(  687) = (   0.0666667   0.5773503   0.2868335), wk =   0.0008889
        k(  688) = (   0.0666667   0.5773503  -0.3073216), wk =   0.0004444
        k(  689) = (   0.1000000   0.1732051   0.0000000), wk =   0.0004444
        k(  690) = (   0.1000000   0.1732051   0.0204881), wk =   0.0008889
        k(  691) = (   0.1000000   0.1732051   0.0409762), wk =   0.0008889
        k(  692) = (   0.1000000   0.1732051   0.0614643), wk =   0.0008889
        k(  693) = (   0.1000000   0.1732051   0.0819524), wk =   0.0008889
        k(  694) = (   0.1000000   0.1732051   0.1024405), wk =   0.0008889
        k(  695) = (   0.1000000   0.1732051   0.1229287), wk =   0.0008889
        k(  696) = (   0.1000000   0.1732051   0.1434168), wk =   0.0008889
        k(  697) = (   0.1000000   0.1732051   0.1639049), wk =   0.0008889
        k(  698) = (   0.1000000   0.1732051   0.1843930), wk =   0.0008889
        k(  699) = (   0.1000000   0.1732051   0.2048811), wk =   0.0008889
        k(  700) = (   0.1000000   0.1732051   0.2253692), wk =   0.0008889
        k(  701) = (   0.1000000   0.1732051   0.2458573), wk =   0.0008889
        k(  702) = (   0.1000000   0.1732051   0.2663454), wk =   0.0008889
        k(  703) = (   0.1000000   0.1732051   0.2868335), wk =   0.0008889
        k(  704) = (   0.1000000   0.1732051  -0.3073216), wk =   0.0004444
        k(  705) = (   0.1000000   0.2116951   0.0000000), wk =   0.0008889
        k(  706) = (   0.1000000   0.2116951   0.0204881), wk =   0.0017778
        k(  707) = (   0.1000000   0.2116951   0.0409762), wk =   0.0017778
        k(  708) = (   0.1000000   0.2116951   0.0614643), wk =   0.0017778
        k(  709) = (   0.1000000   0.2116951   0.0819524), wk =   0.0017778
        k(  710) = (   0.1000000   0.2116951   0.1024405), wk =   0.0017778
        k(  711) = (   0.1000000   0.2116951   0.1229287), wk =   0.0017778
        k(  712) = (   0.1000000   0.2116951   0.1434168), wk =   0.0017778
        k(  713) = (   0.1000000   0.2116951   0.1639049), wk =   0.0017778
        k(  714) = (   0.1000000   0.2116951   0.1843930), wk =   0.0017778
        k(  715) = (   0.1000000   0.2116951   0.2048811), wk =   0.0017778
        k(  716) = (   0.1000000   0.2116951   0.2253692), wk =   0.0017778
        k(  717) = (   0.1000000   0.2116951   0.2458573), wk =   0.0017778
        k(  718) = (   0.1000000   0.2116951   0.2663454), wk =   0.0017778
        k(  719) = (   0.1000000   0.2116951   0.2868335), wk =   0.0017778
        k(  720) = (   0.1000000   0.2116951  -0.3073216), wk =   0.0008889
        k(  721) = (   0.1000000   0.2501851   0.0000000), wk =   0.0008889
        k(  722) = (   0.1000000   0.2501851   0.0204881), wk =   0.0017778
        k(  723) = (   0.1000000   0.2501851   0.0409762), wk =   0.0017778
        k(  724) = (   0.1000000   0.2501851   0.0614643), wk =   0.0017778
        k(  725) = (   0.1000000   0.2501851   0.0819524), wk =   0.0017778
        k(  726) = (   0.1000000   0.2501851   0.1024405), wk =   0.0017778
        k(  727) = (   0.1000000   0.2501851   0.1229287), wk =   0.0017778
        k(  728) = (   0.1000000   0.2501851   0.1434168), wk =   0.0017778
        k(  729) = (   0.1000000   0.2501851   0.1639049), wk =   0.0017778
        k(  730) = (   0.1000000   0.2501851   0.1843930), wk =   0.0017778
        k(  731) = (   0.1000000   0.2501851   0.2048811), wk =   0.0017778
        k(  732) = (   0.1000000   0.2501851   0.2253692), wk =   0.0017778
        k(  733) = (   0.1000000   0.2501851   0.2458573), wk =   0.0017778
        k(  734) = (   0.1000000   0.2501851   0.2663454), wk =   0.0017778
        k(  735) = (   0.1000000   0.2501851   0.2868335), wk =   0.0017778
        k(  736) = (   0.1000000   0.2501851  -0.3073216), wk =   0.0008889
        k(  737) = (   0.1000000   0.2886751   0.0000000), wk =   0.0008889
        k(  738) = (   0.1000000   0.2886751   0.0204881), wk =   0.0017778
        k(  739) = (   0.1000000   0.2886751   0.0409762), wk =   0.0017778
        k(  740) = (   0.1000000   0.2886751   0.0614643), wk =   0.0017778
        k(  741) = (   0.1000000   0.2886751   0.0819524), wk =   0.0017778
        k(  742) = (   0.1000000   0.2886751   0.1024405), wk =   0.0017778
        k(  743) = (   0.1000000   0.2886751   0.1229287), wk =   0.0017778
        k(  744) = (   0.1000000   0.2886751   0.1434168), wk =   0.0017778
        k(  745) = (   0.1000000   0.2886751   0.1639049), wk =   0.0017778
        k(  746) = (   0.1000000   0.2886751   0.1843930), wk =   0.0017778
        k(  747) = (   0.1000000   0.2886751   0.2048811), wk =   0.0017778
        k(  748) = (   0.1000000   0.2886751   0.2253692), wk =   0.0017778
        k(  749) = (   0.1000000   0.2886751   0.2458573), wk =   0.0017778
        k(  750) = (   0.1000000   0.2886751   0.2663454), wk =   0.0017778
        k(  751) = (   0.1000000   0.2886751   0.2868335), wk =   0.0017778
        k(  752) = (   0.1000000   0.2886751  -0.3073216), wk =   0.0008889
        k(  753) = (   0.1000000   0.3271652   0.0000000), wk =   0.0008889
        k(  754) = (   0.1000000   0.3271652   0.0204881), wk =   0.0017778
        k(  755) = (   0.1000000   0.3271652   0.0409762), wk =   0.0017778
        k(  756) = (   0.1000000   0.3271652   0.0614643), wk =   0.0017778
        k(  757) = (   0.1000000   0.3271652   0.0819524), wk =   0.0017778
        k(  758) = (   0.1000000   0.3271652   0.1024405), wk =   0.0017778
        k(  759) = (   0.1000000   0.3271652   0.1229287), wk =   0.0017778
        k(  760) = (   0.1000000   0.3271652   0.1434168), wk =   0.0017778
        k(  761) = (   0.1000000   0.3271652   0.1639049), wk =   0.0017778
        k(  762) = (   0.1000000   0.3271652   0.1843930), wk =   0.0017778
        k(  763) = (   0.1000000   0.3271652   0.2048811), wk =   0.0017778
        k(  764) = (   0.1000000   0.3271652   0.2253692), wk =   0.0017778
        k(  765) = (   0.1000000   0.3271652   0.2458573), wk =   0.0017778
        k(  766) = (   0.1000000   0.3271652   0.2663454), wk =   0.0017778
        k(  767) = (   0.1000000   0.3271652   0.2868335), wk =   0.0017778
        k(  768) = (   0.1000000   0.3271652  -0.3073216), wk =   0.0008889
        k(  769) = (   0.1000000   0.3656552   0.0000000), wk =   0.0008889
        k(  770) = (   0.1000000   0.3656552   0.0204881), wk =   0.0017778
        k(  771) = (   0.1000000   0.3656552   0.0409762), wk =   0.0017778
        k(  772) = (   0.1000000   0.3656552   0.0614643), wk =   0.0017778
        k(  773) = (   0.1000000   0.3656552   0.0819524), wk =   0.0017778
        k(  774) = (   0.1000000   0.3656552   0.1024405), wk =   0.0017778
        k(  775) = (   0.1000000   0.3656552   0.1229287), wk =   0.0017778
        k(  776) = (   0.1000000   0.3656552   0.1434168), wk =   0.0017778
        k(  777) = (   0.1000000   0.3656552   0.1639049), wk =   0.0017778
        k(  778) = (   0.1000000   0.3656552   0.1843930), wk =   0.0017778
        k(  779) = (   0.1000000   0.3656552   0.2048811), wk =   0.0017778
        k(  780) = (   0.1000000   0.3656552   0.2253692), wk =   0.0017778
        k(  781) = (   0.1000000   0.3656552   0.2458573), wk =   0.0017778
        k(  782) = (   0.1000000   0.3656552   0.2663454), wk =   0.0017778
        k(  783) = (   0.1000000   0.3656552   0.2868335), wk =   0.0017778
        k(  784) = (   0.1000000   0.3656552  -0.3073216), wk =   0.0008889
        k(  785) = (   0.1000000   0.4041452   0.0000000), wk =   0.0008889
        k(  786) = (   0.1000000   0.4041452   0.0204881), wk =   0.0017778
        k(  787) = (   0.1000000   0.4041452   0.0409762), wk =   0.0017778
        k(  788) = (   0.1000000   0.4041452   0.0614643), wk =   0.0017778
        k(  789) = (   0.1000000   0.4041452   0.0819524), wk =   0.0017778
        k(  790) = (   0.1000000   0.4041452   0.1024405), wk =   0.0017778
        k(  791) = (   0.1000000   0.4041452   0.1229287), wk =   0.0017778
        k(  792) = (   0.1000000   0.4041452   0.1434168), wk =   0.0017778
        k(  793) = (   0.1000000   0.4041452   0.1639049), wk =   0.0017778
        k(  794) = (   0.1000000   0.4041452   0.1843930), wk =   0.0017778
        k(  795) = (   0.1000000   0.4041452   0.2048811), wk =   0.0017778
        k(  796) = (   0.1000000   0.4041452   0.2253692), wk =   0.0017778
        k(  797) = (   0.1000000   0.4041452   0.2458573), wk =   0.0017778
        k(  798) = (   0.1000000   0.4041452   0.2663454), wk =   0.0017778
        k(  799) = (   0.1000000   0.4041452   0.2868335), wk =   0.0017778
        k(  800) = (   0.1000000   0.4041452  -0.3073216), wk =   0.0008889
        k(  801) = (   0.1000000   0.4426352   0.0000000), wk =   0.0008889
        k(  802) = (   0.1000000   0.4426352   0.0204881), wk =   0.0017778
        k(  803) = (   0.1000000   0.4426352   0.0409762), wk =   0.0017778
        k(  804) = (   0.1000000   0.4426352   0.0614643), wk =   0.0017778
        k(  805) = (   0.1000000   0.4426352   0.0819524), wk =   0.0017778
        k(  806) = (   0.1000000   0.4426352   0.1024405), wk =   0.0017778
        k(  807) = (   0.1000000   0.4426352   0.1229287), wk =   0.0017778
        k(  808) = (   0.1000000   0.4426352   0.1434168), wk =   0.0017778
        k(  809) = (   0.1000000   0.4426352   0.1639049), wk =   0.0017778
        k(  810) = (   0.1000000   0.4426352   0.1843930), wk =   0.0017778
        k(  811) = (   0.1000000   0.4426352   0.2048811), wk =   0.0017778
        k(  812) = (   0.1000000   0.4426352   0.2253692), wk =   0.0017778
        k(  813) = (   0.1000000   0.4426352   0.2458573), wk =   0.0017778
        k(  814) = (   0.1000000   0.4426352   0.2663454), wk =   0.0017778
        k(  815) = (   0.1000000   0.4426352   0.2868335), wk =   0.0017778
        k(  816) = (   0.1000000   0.4426352  -0.3073216), wk =   0.0008889
        k(  817) = (   0.1000000   0.4811252   0.0000000), wk =   0.0008889
        k(  818) = (   0.1000000   0.4811252   0.0204881), wk =   0.0017778
        k(  819) = (   0.1000000   0.4811252   0.0409762), wk =   0.0017778
        k(  820) = (   0.1000000   0.4811252   0.0614643), wk =   0.0017778
        k(  821) = (   0.1000000   0.4811252   0.0819524), wk =   0.0017778
        k(  822) = (   0.1000000   0.4811252   0.1024405), wk =   0.0017778
        k(  823) = (   0.1000000   0.4811252   0.1229287), wk =   0.0017778
        k(  824) = (   0.1000000   0.4811252   0.1434168), wk =   0.0017778
        k(  825) = (   0.1000000   0.4811252   0.1639049), wk =   0.0017778
        k(  826) = (   0.1000000   0.4811252   0.1843930), wk =   0.0017778
        k(  827) = (   0.1000000   0.4811252   0.2048811), wk =   0.0017778
        k(  828) = (   0.1000000   0.4811252   0.2253692), wk =   0.0017778
        k(  829) = (   0.1000000   0.4811252   0.2458573), wk =   0.0017778
        k(  830) = (   0.1000000   0.4811252   0.2663454), wk =   0.0017778
        k(  831) = (   0.1000000   0.4811252   0.2868335), wk =   0.0017778
        k(  832) = (   0.1000000   0.4811252  -0.3073216), wk =   0.0008889
        k(  833) = (   0.1000000   0.5196152   0.0000000), wk =   0.0008889
        k(  834) = (   0.1000000   0.5196152   0.0204881), wk =   0.0017778
        k(  835) = (   0.1000000   0.5196152   0.0409762), wk =   0.0017778
        k(  836) = (   0.1000000   0.5196152   0.0614643), wk =   0.0017778
        k(  837) = (   0.1000000   0.5196152   0.0819524), wk =   0.0017778
        k(  838) = (   0.1000000   0.5196152   0.1024405), wk =   0.0017778
        k(  839) = (   0.1000000   0.5196152   0.1229287), wk =   0.0017778
        k(  840) = (   0.1000000   0.5196152   0.1434168), wk =   0.0017778
        k(  841) = (   0.1000000   0.5196152   0.1639049), wk =   0.0017778
        k(  842) = (   0.1000000   0.5196152   0.1843930), wk =   0.0017778
        k(  843) = (   0.1000000   0.5196152   0.2048811), wk =   0.0017778
        k(  844) = (   0.1000000   0.5196152   0.2253692), wk =   0.0017778
        k(  845) = (   0.1000000   0.5196152   0.2458573), wk =   0.0017778
        k(  846) = (   0.1000000   0.5196152   0.2663454), wk =   0.0017778
        k(  847) = (   0.1000000   0.5196152   0.2868335), wk =   0.0017778
        k(  848) = (   0.1000000   0.5196152  -0.3073216), wk =   0.0008889
        k(  849) = (   0.1000000   0.5581053   0.0000000), wk =   0.0008889
        k(  850) = (   0.1000000   0.5581053   0.0204881), wk =   0.0017778
        k(  851) = (   0.1000000   0.5581053   0.0409762), wk =   0.0017778
        k(  852) = (   0.1000000   0.5581053   0.0614643), wk =   0.0017778
        k(  853) = (   0.1000000   0.5581053   0.0819524), wk =   0.0017778
        k(  854) = (   0.1000000   0.5581053   0.1024405), wk =   0.0017778
        k(  855) = (   0.1000000   0.5581053   0.1229287), wk =   0.0017778
        k(  856) = (   0.1000000   0.5581053   0.1434168), wk =   0.0017778
        k(  857) = (   0.1000000   0.5581053   0.1639049), wk =   0.0017778
        k(  858) = (   0.1000000   0.5581053   0.1843930), wk =   0.0017778
        k(  859) = (   0.1000000   0.5581053   0.2048811), wk =   0.0017778
        k(  860) = (   0.1000000   0.5581053   0.2253692), wk =   0.0017778
        k(  861) = (   0.1000000   0.5581053   0.2458573), wk =   0.0017778
        k(  862) = (   0.1000000   0.5581053   0.2663454), wk =   0.0017778
        k(  863) = (   0.1000000   0.5581053   0.2868335), wk =   0.0017778
        k(  864) = (   0.1000000   0.5581053  -0.3073216), wk =   0.0008889
        k(  865) = (   0.1333333   0.2309401   0.0000000), wk =   0.0004444
        k(  866) = (   0.1333333   0.2309401   0.0204881), wk =   0.0008889
        k(  867) = (   0.1333333   0.2309401   0.0409762), wk =   0.0008889
        k(  868) = (   0.1333333   0.2309401   0.0614643), wk =   0.0008889
        k(  869) = (   0.1333333   0.2309401   0.0819524), wk =   0.0008889
        k(  870) = (   0.1333333   0.2309401   0.1024405), wk =   0.0008889
        k(  871) = (   0.1333333   0.2309401   0.1229287), wk =   0.0008889
        k(  872) = (   0.1333333   0.2309401   0.1434168), wk =   0.0008889
        k(  873) = (   0.1333333   0.2309401   0.1639049), wk =   0.0008889
        k(  874) = (   0.1333333   0.2309401   0.1843930), wk =   0.0008889
        k(  875) = (   0.1333333   0.2309401   0.2048811), wk =   0.0008889
        k(  876) = (   0.1333333   0.2309401   0.2253692), wk =   0.0008889
        k(  877) = (   0.1333333   0.2309401   0.2458573), wk =   0.0008889
        k(  878) = (   0.1333333   0.2309401   0.2663454), wk =   0.0008889
        k(  879) = (   0.1333333   0.2309401   0.2868335), wk =   0.0008889
        k(  880) = (   0.1333333   0.2309401  -0.3073216), wk =   0.0004444
        k(  881) = (   0.1333333   0.2694301   0.0000000), wk =   0.0008889
        k(  882) = (   0.1333333   0.2694301   0.0204881), wk =   0.0017778
        k(  883) = (   0.1333333   0.2694301   0.0409762), wk =   0.0017778
        k(  884) = (   0.1333333   0.2694301   0.0614643), wk =   0.0017778
        k(  885) = (   0.1333333   0.2694301   0.0819524), wk =   0.0017778
        k(  886) = (   0.1333333   0.2694301   0.1024405), wk =   0.0017778
        k(  887) = (   0.1333333   0.2694301   0.1229287), wk =   0.0017778
        k(  888) = (   0.1333333   0.2694301   0.1434168), wk =   0.0017778
        k(  889) = (   0.1333333   0.2694301   0.1639049), wk =   0.0017778
        k(  890) = (   0.1333333   0.2694301   0.1843930), wk =   0.0017778
        k(  891) = (   0.1333333   0.2694301   0.2048811), wk =   0.0017778
        k(  892) = (   0.1333333   0.2694301   0.2253692), wk =   0.0017778
        k(  893) = (   0.1333333   0.2694301   0.2458573), wk =   0.0017778
        k(  894) = (   0.1333333   0.2694301   0.2663454), wk =   0.0017778
        k(  895) = (   0.1333333   0.2694301   0.2868335), wk =   0.0017778
        k(  896) = (   0.1333333   0.2694301  -0.3073216), wk =   0.0008889
        k(  897) = (   0.1333333   0.3079201   0.0000000), wk =   0.0008889
[...]
     1.0000   1.0000   1.0000   1.0000   1.0000   1.0000   1.0000   1.0000
     1.0000   1.0000   1.0000   1.0000   1.0000   1.0000   1.0000   1.0000
     1.0000   1.0000

          k = 0.3000 0.5196 0.2049 ( 14740 PWs)   bands (ev):

    -4.3337  -4.3100  -2.8659  -2.8134  -2.7963  -2.7417  -2.6790  -2.6725
    -2.6458  -2.6333  -1.0001  -0.8046   4.5305   4.7261   6.0751   7.2504
     8.5633   9.0207

     occupation numbers 
     1.0000   1.0000   1.0000   1.0000   1.0000   1.0000   1.0000   1.0000
     1.0000   1.0000   1.0000   1.0000   1.0000   1.0000   1.0000   1.0000
     1.0000   1.0000

          k = 0.3000 0.5196 0.2254 ( 14737 PWs)   bands (ev):

    -4.3275  -4.3083  -2.8539  -2.8173  -2.8024  -2.7501  -2.6793  -2.6750
    -2.6433  -2.6322  -0.9824  -0.8229   4.4957   4.6584   6.1676   7.1228
     8.7182   9.0982

     occupation numbers 
     1.0000   1.0000   1.0000   1.0000   1.0000   1.0000   1.0000   1.0000
     1.0000   1.0000   1.0000   1.0000   1.0000   1.0000   1.0000   1.0000
     1.0000   1.0000

          k = 0.3000 0.5196 0.2459 ( 14734 PWs)   bands (ev):

    -4.3219  -4.3074  -2.8418  -2.8201  -2.8072  -2.7601  -2.6797  -2.6772
    -2.6405  -2.6316  -0.9637  -0.8422   4.4731   4.5987   6.2687   6.9937
     8.8569   9.1510

     occupation numbers 
     1.0000   1.0000   1.0000   1.0000   1.0000   1.0000   1.0000   1.0000
     1.0000   1.0000   1.0000   1.0000   1.0000   1.0000   1.0000   1.0000
     1.0000   1.0000

          k = 0.3000 0.5196 0.2663 ( 14728 PWs)   bands (ev):

    -4.3171  -4.3073  -2.8305  -2.8219  -2.8096  -2.7714  -2.6800  -2.6788
    -2.6378  -2.6317  -0.9441  -0.8622   4.4632   4.5486   6.3773   6.8646
     8.9751   9.1759

     occupation numbers 
     1.0000   1.0000   1.0000   1.0000   1.0000   1.0000   1.0000   1.0000
     1.0000   1.0000   1.0000   1.0000   1.0000   1.0000   1.0000   1.0000
     1.0000   1.0000

          k = 0.3000 0.5196 0.2868 ( 14735 PWs)   bands (ev):

    -4.3132  -4.3083  -2.8239  -2.8226  -2.8060  -2.7836  -2.6802  -2.6797
    -2.6354  -2.6323  -0.9239  -0.8826   4.4660   4.5092   6.4924   6.7372
     9.0688   9.1706

     occupation numbers 
     1.0000   1.0000   1.0000   1.0000   1.0000   1.0000   1.0000   1.0000
     1.0000   1.0000   1.0000   1.0000   1.0000   1.0000   1.0000   1.0000
     1.0000   1.0000

          k = 0.3000 0.5196-0.3073 ( 14744 PWs)   bands (ev):

    -4.3102  -4.3102  -2.8228  -2.8228  -2.7958  -2.7958  -2.6802  -2.6802
    -2.6336  -2.6336  -0.9033  -0.9033   4.4815   4.4815   6.6127   6.6127
     9.1346   9.1346

     occupation numbers 
     1.0000   1.0000   1.0000   1.0000   1.0000   1.0000   1.0000   1.0000
     1.0000   1.0000   1.0000   1.0000   1.0000   1.0000   1.0000   1.0000
     1.0000   1.0000

          k = 0.3000 0.5581 0.0000 ( 14750 PWs)   bands (ev):

    -4.3657  -4.3387  -2.9330  -2.7474  -2.7225  -2.7185  -2.7068  -2.6980
    -2.6568  -2.6129  -0.9701  -0.7778   5.1102   5.3262   5.5731   7.4400
     7.8718   7.9685

     occupation numbers 
     1.0000   1.0000   1.0000   1.0000   1.0000   1.0000   1.0000   1.0000
     1.0000   1.0000   1.0000   1.0000   1.0000   1.0000   1.0000   1.0000
     1.0000   1.0000

          k = 0.3000 0.5581 0.0205 ( 14749 PWs)   bands (ev):

    -4.3651  -4.3383  -2.9323  -2.7492  -2.7255  -2.7184  -2.7052  -2.6955
    -2.6568  -2.6136  -0.9695  -0.7782   5.1013   5.3168   5.5701   7.4608
     7.8881   7.9609

     occupation numbers 
     1.0000   1.0000   1.0000   1.0000   1.0000   1.0000   1.0000   1.0000
     1.0000   1.0000   1.0000   1.0000   1.0000   1.0000   1.0000   1.0000
     1.0000   1.0000

          k = 0.3000 0.5581 0.0410 ( 14747 PWs)   bands (ev):

    -4.3635  -4.3371  -2.9302  -2.7540  -2.7322  -2.7184  -2.7012  -2.6901
    -2.6567  -2.6158  -0.9678  -0.7794   5.0742   5.2889   5.5649   7.5209
     7.9104   7.9632

     occupation numbers 
     1.0000   1.0000   1.0000   1.0000   1.0000   1.0000   1.0000   1.0000
     1.0000   1.0000   1.0000   1.0000   1.0000   1.0000   1.0000   1.0000
     1.0000   1.0000

          k = 0.3000 0.5581 0.0615 ( 14749 PWs)   bands (ev):

    -4.3608  -4.3352  -2.9267  -2.7604  -2.7404  -2.7188  -2.6959  -2.6840
    -2.6565  -2.6194  -0.9650  -0.7814   5.0291   5.2425   5.5658   7.6147
     7.8731   8.0377

     occupation numbers 
     1.0000   1.0000   1.0000   1.0000   1.0000   1.0000   1.0000   1.0000
     1.0000   1.0000   1.0000   1.0000   1.0000   1.0000   1.0000   1.0000
     1.0000   1.0000

          k = 0.3000 0.5581 0.0820 ( 14761 PWs)   bands (ev):

    -4.3572  -4.3326  -2.9217  -2.7677  -2.7491  -2.7194  -2.6902  -2.6782
    -2.6561  -2.6243  -0.9611  -0.7842   4.9691   5.1792   5.5799   7.7306
     7.8157   8.1446

     occupation numbers 
     1.0000   1.0000   1.0000   1.0000   1.0000   1.0000   1.0000   1.0000
     1.0000   1.0000   1.0000   1.0000   1.0000   1.0000   1.0000   1.0000
     1.0000   1.0000

          k = 0.3000 0.5581 0.1024 ( 14753 PWs)   bands (ev):

    -4.3528  -4.3296  -2.9155  -2.7752  -2.7581  -2.7204  -2.6848  -2.6730
    -2.6552  -2.6301  -0.9561  -0.7878   4.8992   5.1028   5.6097   7.7219
     7.8864   8.2697

     occupation numbers 
     1.0000   1.0000   1.0000   1.0000   1.0000   1.0000   1.0000   1.0000
     1.0000   1.0000   1.0000   1.0000   1.0000   1.0000   1.0000   1.0000
     1.0000   1.0000

          k = 0.3000 0.5581 0.1229 ( 14749 PWs)   bands (ev):

    -4.3477  -4.3261  -2.9080  -2.7827  -2.7669  -2.7221  -2.6800  -2.6686
    -2.6537  -2.6365  -0.9501  -0.7923   4.8250   5.0187   5.6543   7.6302
     8.0397   8.4053

     occupation numbers 
     1.0000   1.0000   1.0000   1.0000   1.0000   1.0000   1.0000   1.0000
     1.0000   1.0000   1.0000   1.0000   1.0000   1.0000   1.0000   1.0000
     1.0000   1.0000

          k = 0.3000 0.5581 0.1434 ( 14740 PWs)   bands (ev):

    -4.3422  -4.3224  -2.8993  -2.7898  -2.7756  -2.7245  -2.6764  -2.6650
    -2.6517  -2.6429  -0.9432  -0.7976   4.7511   4.9319   5.7122   7.5252
     8.2023   8.5447

     occupation numbers 
     1.0000   1.0000   1.0000   1.0000   1.0000   1.0000   1.0000   1.0000
     1.0000   1.0000   1.0000   1.0000   1.0000   1.0000   1.0000   1.0000
     1.0000   1.0000

          k = 0.3000 0.5581 0.1639 ( 14745 PWs)   bands (ev):

    -4.3365  -4.3187  -2.8895  -2.7965  -2.7838  -2.7282  -2.6741  -2.6624
    -2.6504  -2.6472  -0.9354  -0.8037   4.6815   4.8463   5.7818   7.4105
     8.3669   8.6820

     occupation numbers 
     1.0000   1.0000   1.0000   1.0000   1.0000   1.0000   1.0000   1.0000
     1.0000   1.0000   1.0000   1.0000   1.0000   1.0000   1.0000   1.0000
     1.0000   1.0000

          k = 0.3000 0.5581 0.1844 ( 14742 PWs)   bands (ev):

    -4.3308  -4.3152  -2.8787  -2.8025  -2.7914  -2.7335  -2.6731  -2.6625
    -2.6517  -2.6457  -0.9269  -0.8107   4.6189   4.7652   5.8619   7.2887
     8.5280   8.8112

     occupation numbers 
     1.0000   1.0000   1.0000   1.0000   1.0000   1.0000   1.0000   1.0000
     1.0000   1.0000   1.0000   1.0000   1.0000   1.0000   1.0000   1.0000
     1.0000   1.0000

          k = 0.3000 0.5581 0.2049 ( 14734 PWs)   bands (ev):

    -4.3253  -4.3120  -2.8670  -2.8077  -2.7983  -2.7406  -2.6728  -2.6656
    -2.6501  -2.6435  -0.9177  -0.8184   4.5654   4.6909   5.9516   7.1617
     8.6805   8.9270

     occupation numbers 
     1.0000   1.0000   1.0000   1.0000   1.0000   1.0000   1.0000   1.0000
     1.0000   1.0000   1.0000   1.0000   1.0000   1.0000   1.0000   1.0000
     1.0000   1.0000

          k = 0.3000 0.5581 0.2254 ( 14739 PWs)   bands (ev):

    -4.3202  -4.3094  -2.8546  -2.8120  -2.8043  -2.7495  -2.6729  -2.6689
    -2.6475  -2.6416  -0.9079  -0.8269   4.5225   4.6252   6.0497   7.0315
     8.8194   9.0244

     occupation numbers 
     1.0000   1.0000   1.0000   1.0000   1.0000   1.0000   1.0000   1.0000
     1.0000   1.0000   1.0000   1.0000   1.0000   1.0000   1.0000   1.0000
     1.0000   1.0000

          k = 0.3000 0.5581 0.2459 ( 14741 PWs)   bands (ev):

    -4.3157  -4.3075  -2.8417  -2.8151  -2.8093  -2.7602  -2.6733  -2.6713
    -2.6449  -2.6403  -0.8977  -0.8360   4.4912   4.5697   6.1556   6.8997
     8.9401   9.0989

     occupation numbers 
     1.0000   1.0000   1.0000   1.0000   1.0000   1.0000   1.0000   1.0000
     1.0000   1.0000   1.0000   1.0000   1.0000   1.0000   1.0000   1.0000
     1.0000   1.0000

          k = 0.3000 0.5581 0.2663 ( 14750 PWs)   bands (ev):

    -4.3119  -4.3064  -2.8291  -2.8169  -2.8126  -2.7722  -2.6737  -2.6728
    -2.6427  -2.6395  -0.8873  -0.8456   4.4724   4.5254   6.2683   6.7681
     9.0381   9.1466

     occupation numbers 
     1.0000   1.0000   1.0000   1.0000   1.0000   1.0000   1.0000   1.0000
     1.0000   1.0000   1.0000   1.0000   1.0000   1.0000   1.0000   1.0000
     1.0000   1.0000

          k = 0.3000 0.5581 0.2868 ( 14744 PWs)   bands (ev):

    -4.3090  -4.3063  -2.8210  -2.8179  -2.8098  -2.7850  -2.6740  -2.6737
    -2.6410  -2.6394  -0.8767  -0.8557   4.4664   4.4931   6.3869   6.6379
     9.1100   9.1650

     occupation numbers 
     1.0000   1.0000   1.0000   1.0000   1.0000   1.0000   1.0000   1.0000
     1.0000   1.0000   1.0000   1.0000   1.0000   1.0000   1.0000   1.0000
     1.0000   1.0000

          k = 0.3000 0.5581-0.3073 ( 14750 PWs)   bands (ev):

    -4.3072  -4.3072  -2.8192  -2.8192  -2.7981  -2.7981  -2.6740  -2.6740
    -2.6399  -2.6399  -0.8661  -0.8661   4.4733   4.4733   6.5104   6.5104
     9.1528   9.1528

     occupation numbers 
     1.0000   1.0000   1.0000   1.0000   1.0000   1.0000   1.0000   1.0000
     1.0000   1.0000   1.0000   1.0000   1.0000   1.0000   1.0000   1.0000
     1.0000   1.0000

          k = 0.3333 0.5774 0.0000 ( 14724 PWs)   bands (ev):

    -4.3505  -4.3505  -2.9343  -2.7320  -2.7320  -2.7179  -2.7026  -2.7026
    -2.6600  -2.6138  -0.8621  -0.8621   5.2988   5.2988   5.3669   7.6614
     7.6614   7.9163

     occupation numbers 
     1.0000   1.0000   1.0000   1.0000   1.0000   1.0000   1.0000   1.0000
     1.0000   1.0000   1.0000   1.0000   1.0000   1.0000   1.0000   1.0000
     1.0000   1.0000

          k = 0.3333 0.5774 0.0205 ( 14739 PWs)   bands (ev):

    -4.3501  -4.3501  -2.9336  -2.7345  -2.7345  -2.7180  -2.7003  -2.7003
    -2.6601  -2.6145  -0.8620  -0.8620   5.2855   5.2855   5.3723   7.6811
     7.6811   7.9062

     occupation numbers 
     1.0000   1.0000   1.0000   1.0000   1.0000   1.0000   1.0000   1.0000
     1.0000   1.0000   1.0000   1.0000   1.0000   1.0000   1.0000   1.0000
     1.0000   1.0000

          k = 0.3333 0.5774 0.0410 ( 14742 PWs)   bands (ev):

    -4.3487  -4.3487  -2.9314  -2.7405  -2.7405  -2.7181  -2.6951  -2.6951
    -2.6603  -2.6168  -0.8616  -0.8616   5.2473   5.2473   5.3883   7.7383
     7.7383   7.8764

     occupation numbers 
     1.0000   1.0000   1.0000   1.0000   1.0000   1.0000   1.0000   1.0000
     1.0000   1.0000   1.0000   1.0000   1.0000   1.0000   1.0000   1.0000
     1.0000   1.0000

          k = 0.3333 0.5774 0.0615 ( 14760 PWs)   bands (ev):

    -4.3464  -4.3464  -2.9278  -2.7481  -2.7481  -2.7185  -2.6888  -2.6888
    -2.6608  -2.6205  -0.8610  -0.8610   5.1886   5.1886   5.4150   7.8277
     7.8281   7.8281

     occupation numbers 
     1.0000   1.0000   1.0000   1.0000   1.0000   1.0000   1.0000   1.0000
     1.0000   1.0000   1.0000   1.0000   1.0000   1.0000   1.0000   1.0000
     1.0000   1.0000

          k = 0.3333 0.5774 0.0820 ( 14772 PWs)   bands (ev):

    -4.3433  -4.3433  -2.9229  -2.7563  -2.7563  -2.7191  -2.6823  -2.6823
    -2.6613  -2.6254  -0.8602  -0.8602   5.1153   5.1153   5.4522   7.7616
     7.9437   7.9437

     occupation numbers 
     1.0000   1.0000   1.0000   1.0000   1.0000   1.0000   1.0000   1.0000
     1.0000   1.0000   1.0000   1.0000   1.0000   1.0000   1.0000   1.0000
     1.0000   1.0000

          k = 0.3333 0.5774 0.1024 ( 14757 PWs)   bands (ev):

    -4.3396  -4.3396  -2.9166  -2.7647  -2.7647  -2.7201  -2.6760  -2.6760
    -2.6620  -2.6314  -0.8593  -0.8593   5.0331   5.0331   5.4997   7.6797
     8.0782   8.0782

     occupation numbers 
     1.0000   1.0000   1.0000   1.0000   1.0000   1.0000   1.0000   1.0000
     1.0000   1.0000   1.0000   1.0000   1.0000   1.0000   1.0000   1.0000
     1.0000   1.0000

          k = 0.3333 0.5774 0.1229 ( 14739 PWs)   bands (ev):

    -4.3353  -4.3353  -2.9091  -2.7730  -2.7730  -2.7217  -2.6701  -2.6701
    -2.6629  -2.6381  -0.8582  -0.8582   4.9474   4.9474   5.5571   7.5843
     8.2245   8.2245

     occupation numbers 
     1.0000   1.0000   1.0000   1.0000   1.0000   1.0000   1.0000   1.0000
     1.0000   1.0000   1.0000   1.0000   1.0000   1.0000   1.0000   1.0000
     1.0000   1.0000

          k = 0.3333 0.5774 0.1434 ( 14712 PWs)   bands (ev):

    -4.3308  -4.3308  -2.9003  -2.7810  -2.7810  -2.7242  -2.6646  -2.6646
    -2.6638  -2.6452  -0.8570  -0.8570   4.8623   4.8623   5.6243   7.4774
     8.3765   8.3765

     occupation numbers 
     1.0000   1.0000   1.0000   1.0000   1.0000   1.0000   1.0000   1.0000
     1.0000   1.0000   1.0000   1.0000   1.0000   1.0000   1.0000   1.0000
     1.0000   1.0000

          k = 0.3333 0.5774 0.1639 ( 14724 PWs)   bands (ev):

    -4.3261  -4.3261  -2.8904  -2.7885  -2.7885  -2.7279  -2.6649  -2.6598
    -2.6598  -2.6521  -0.8557  -0.8557   4.7812   4.7812   5.7007   7.3613
     8.5283   8.5283

     occupation numbers 
     1.0000   1.0000   1.0000   1.0000   1.0000   1.0000   1.0000   1.0000
     1.0000   1.0000   1.0000   1.0000   1.0000   1.0000   1.0000   1.0000
     1.0000   1.0000

          k = 0.3333 0.5774 0.1844 ( 14736 PWs)   bands (ev):

    -4.3215  -4.3215  -2.8794  -2.7954  -2.7954  -2.7333  -2.6660  -2.6583
    -2.6555  -2.6555  -0.8545  -0.8545   4.7066   4.7066   5.7860   7.2380
     8.6743   8.6743

     occupation numbers 
     1.0000   1.0000   1.0000   1.0000   1.0000   1.0000   1.0000   1.0000
     1.0000   1.0000   1.0000   1.0000   1.0000   1.0000   1.0000   1.0000
     1.0000   1.0000

          k = 0.3333 0.5774 0.2049 ( 14742 PWs)   bands (ev):

    -4.3172  -4.3172  -2.8676  -2.8015  -2.8015  -2.7405  -2.6671  -2.6634
    -2.6518  -2.6518  -0.8534  -0.8534   4.6407   4.6407   5.8797   7.1096
     8.8092   8.8092

     occupation numbers 
     1.0000   1.0000   1.0000   1.0000   1.0000   1.0000   1.0000   1.0000
     1.0000   1.0000   1.0000   1.0000   1.0000   1.0000   1.0000   1.0000
     1.0000   1.0000

          k = 0.3333 0.5774 0.2254 ( 14754 PWs)   bands (ev):

    -4.3134  -4.3134  -2.8549  -2.8067  -2.8067  -2.7497  -2.6682  -2.6671
    -2.6488  -2.6488  -0.8524  -0.8524   4.5849   4.5849   5.9811   6.9780
     8.9282   8.9282

     occupation numbers 
     1.0000   1.0000   1.0000   1.0000   1.0000   1.0000   1.0000   1.0000
     1.0000   1.0000   1.0000   1.0000   1.0000   1.0000   1.0000   1.0000
     1.0000   1.0000

          k = 0.3333 0.5774 0.2459 ( 14745 PWs)   bands (ev):

    -4.3102  -4.3102  -2.8417  -2.8109  -2.8109  -2.7606  -2.6696  -2.6693
    -2.6464  -2.6464  -0.8516  -0.8516   4.5404   4.5404   6.0897   6.8449
     9.0265   9.0265

     occupation numbers 
     1.0000   1.0000   1.0000   1.0000   1.0000   1.0000   1.0000   1.0000
     1.0000   1.0000   1.0000   1.0000   1.0000   1.0000   1.0000   1.0000
     1.0000   1.0000

          k = 0.3333 0.5774 0.2663 ( 14754 PWs)   bands (ev):

    -4.3078  -4.3078  -2.8279  -2.8140  -2.8140  -2.7729  -2.6710  -2.6703
    -2.6447  -2.6447  -0.8510  -0.8510   4.5080   4.5080   6.2047   6.7117
     9.1000   9.1000

     occupation numbers 
     1.0000   1.0000   1.0000   1.0000   1.0000   1.0000   1.0000   1.0000
     1.0000   1.0000   1.0000   1.0000   1.0000   1.0000   1.0000   1.0000
     1.0000   1.0000

          k = 0.3333 0.5774 0.2868 ( 14766 PWs)   bands (ev):

    -4.3063  -4.3063  -2.8158  -2.8158  -2.8139  -2.7861  -2.6715  -2.6710
    -2.6437  -2.6437  -0.8506  -0.8506   4.4884   4.4884   6.3254   6.5799
     9.1455   9.1455

     occupation numbers 
     1.0000   1.0000   1.0000   1.0000   1.0000   1.0000   1.0000   1.0000
     1.0000   1.0000   1.0000   1.0000   1.0000   1.0000   1.0000   1.0000
     1.0000   1.0000

          k = 0.3333 0.5774-0.3073 ( 14790 PWs)   bands (ev):

    -4.3058  -4.3058  -2.8165  -2.8165  -2.7999  -2.7999  -2.6715  -2.6715
    -2.6434  -2.6434  -0.8504  -0.8504   4.4818   4.4818   6.4508   6.4508
     9.1609   9.1609

     occupation numbers 
     1.0000   1.0000   1.0000   1.0000   1.0000   1.0000   1.0000   1.0000
     1.0000   1.0000   1.0000   1.0000   1.0000   1.0000   1.0000   1.0000
     1.0000   1.0000

     highest occupied level (ev):    10.6187

!    total energy              =    -347.51875566 Ry
     estimated scf accuracy    <       0.00000059 Ry

     The total energy is the sum of the following terms:
     one-electron contribution =    -105.66903751 Ry
     hartree contribution      =      87.58436462 Ry
     xc contribution           =     -96.27725588 Ry
     ewald contribution        =    -233.15682690 Ry

     convergence has been achieved in  18 iterations

     Writing output data file ../tmp/GaN_exc1.save/
 
     init_run     :     30.00s CPU     30.86s WALL (       1 calls)
     electrons    :   1162.71s CPU   1177.59s WALL (       1 calls)

     Called by init_run:
     wfcinit      :     28.82s CPU     29.60s WALL (       1 calls)
     wfcinit:atom :      0.75s CPU      0.75s WALL (    1456 calls)
     wfcinit:wfcr :     23.91s CPU     24.19s WALL (    1456 calls)
     potinit      :      0.16s CPU      0.16s WALL (       1 calls)
     hinit0       :      0.32s CPU      0.38s WALL (       1 calls)

     Called by electrons:
     c_bands      :   1002.85s CPU   1014.39s WALL (      18 calls)
     sum_band     :    159.30s CPU    162.56s WALL (      18 calls)
     v_of_rho     :      0.42s CPU      0.45s WALL (      19 calls)
     v_h          :      0.02s CPU      0.02s WALL (      19 calls)
     v_xc         :      0.41s CPU      0.44s WALL (      19 calls)
     mix_rho      :      0.12s CPU      0.16s WALL (      18 calls)

     Called by c_bands:
     init_us_2    :     43.51s CPU     45.27s WALL (   53872 calls)
     cegterg      :    857.28s CPU    866.80s WALL (   26208 calls)

     Called by sum_band:
     sum_band:wei :      0.00s CPU      0.00s WALL (      18 calls)
     sum_band:loo :    159.23s CPU    162.48s WALL (      18 calls)
     sum_band:buf :      5.46s CPU      5.96s WALL (   26208 calls)
     sum_band:ini :     21.33s CPU     22.35s WALL (   26208 calls)

     Called by *egterg:
     cdiaghg      :     59.28s CPU     59.76s WALL (   79364 calls)
     cegterg:over :     44.33s CPU     44.57s WALL (   53156 calls)
     cegterg:upda :     25.83s CPU     26.06s WALL (   53156 calls)
     cegterg:last :     40.25s CPU     40.49s WALL (   45646 calls)
     cdiaghg:chol :      6.86s CPU      6.93s WALL (   79364 calls)
     cdiaghg:inve :      1.44s CPU      1.47s WALL (   79364 calls)
     cdiaghg:para :      6.12s CPU      6.13s WALL (  158728 calls)
     h_psi        :    675.91s CPU    684.55s WALL (   80820 calls)
     g_psi        :      5.08s CPU      5.13s WALL (   53156 calls)

     Called by h_psi:
     h_psi:calbec :     43.04s CPU     43.54s WALL (   80820 calls)
     vloc_psi     :    569.17s CPU    576.96s WALL (   80820 calls)
     add_vuspsi   :     53.43s CPU     53.80s WALL (   80820 calls)

     General routines
     calbec       :     42.76s CPU     43.34s WALL (   80820 calls)
     fft          :      0.11s CPU      0.17s WALL (     190 calls)
     ffts         :      0.01s CPU      0.01s WALL (      18 calls)
     fftw         :    553.05s CPU    560.15s WALL ( 2776260 calls)
 
     Parallel routines
 
     PWSCF        :  19m56.63s CPU  20m18.97s WALL

 
   This run was terminated on:  20:27:15  27Mar2023            

=------------------------------------------------------------------------------=
   JOB DONE.
=------------------------------------------------------------------------------=
