
     Program PWSCF v.6.8 starts on 27Mar2023 at 20:27:16 

     This program is part of the open-source Quantum ESPRESSO suite
     for quantum simulation of materials; please cite
         "P. Giannozzi et al., J. Phys.:Condens. Matter 21 395502 (2009);
         "P. Giannozzi et al., J. Phys.:Condens. Matter 29 465901 (2017);
         "P. Giannozzi et al., J. Chem. Phys. 152 154105 (2020);
          URL http://www.quantum-espresso.org", 
     in publications or presentations arising from this work. More details at
     http://www.quantum-espresso.org/quote

     Parallel version (MPI & OpenMP), running on       6 processor cores
     Number of MPI processes:                 6
     Threads/MPI process:                     1

     MPI processes distributed on     1 nodes
     R & G space division:  proc/nbgrp/npool/nimage =       6
     12028 MiB available memory on the printing compute node when the environment starts
 
     Waiting for input...
     Reading input from standard input
Warning: card &CELL ignored
Warning: card / ignored

     Current dimensions of program PWSCF are:
     Max number of different atomic species (ntypx) = 10
     Max number of k-points (npk) =  40000
     Max angular momentum in pseudopotentials (lmaxx) =  4

     Subspace diagonalization in iterative solution of the eigenvalue problem:
     one sub-group per band group will be used
     scalapack distributed-memory algorithm (size of sub-group:  2*  2 procs)

 
     Parallelization info
     --------------------
     sticks:   dense  smooth     PW     G-vecs:    dense   smooth      PW
     Min         332     332     93                19646    19646    2883
     Max         333     333     94                19651    19651    2888
     Sum        1993    1993    559               117881   117881   17309
 
     Using Slab Decomposition
 


     bravais-lattice index     =            4
     lattice parameter (alat)  =       6.0282  a.u.
     unit-cell volume          =     308.6570 (a.u.)^3
     number of atoms/cell      =            4
     number of atomic types    =            2
     number of electrons       =        36.00
     number of Kohn-Sham states=           18
     kinetic-energy cutoff     =     200.0000  Ry
     charge density cutoff     =     800.0000  Ry
     scf convergence threshold =      1.0E-06
     mixing beta               =       0.7000
     number of iterations used =            8  plain     mixing
     Exchange-correlation= PBE
                           (   1   4   3   4   0   0   0)

     celldm(1)=   6.028226  celldm(2)=   0.000000  celldm(3)=   1.626960
     celldm(4)=   0.000000  celldm(5)=   0.000000  celldm(6)=   0.000000

     crystal axes: (cart. coord. in units of alat)
               a(1) = (   1.000000   0.000000   0.000000 )  
               a(2) = (  -0.500000   0.866025   0.000000 )  
               a(3) = (   0.000000   0.000000   1.626960 )  

     reciprocal axes: (cart. coord. in units 2 pi/alat)
               b(1) = (  1.000000  0.577350  0.000000 )  
               b(2) = (  0.000000  1.154701  0.000000 )  
               b(3) = (  0.000000  0.000000  0.614643 )  


     PseudoPot. # 1 for Ga read from file:
     ../pseudo/Ga_ONCV_PBE_sr.upf
     MD5 check sum: e3654b1fbeb096be7359f640ef9d98d7
     Pseudo is Norm-conserving + core correction, Zval = 13.0
     Generated using ONCVPSP code by D. R. Hamann
     Using radial grid of 1902 points,  6 beta functions with: 
                l(1) =   0
                l(2) =   0
                l(3) =   1
                l(4) =   1
                l(5) =   2
                l(6) =   2

     PseudoPot. # 2 for N  read from file:
     ../pseudo/N_ONCV_PBE_sr.upf
     MD5 check sum: 18c6af81dac9c5a2d6d52ed11cf7bfee
     Pseudo is Norm-conserving + core correction, Zval =  5.0
     Generated using ONCVPSP code by D. R. Hamann
     Using radial grid of 1058 points,  4 beta functions with: 
                l(1) =   0
                l(2) =   0
                l(3) =   1
                l(4) =   1

     atomic species   valence    mass     pseudopotential
        Ga            13.00    69.72300     Ga( 1.00)
        N              5.00    14.00700     N ( 1.00)

     12 Sym. Ops. (no inversion) found ( 6 have fractional translation)


                                    s                        frac. trans.

      isym =  1     identity                                     

 cryst.   s( 1) = (     1          0          0      )
                  (     0          1          0      )
                  (     0          0          1      )

 cart.    s( 1) = (  1.0000000  0.0000000  0.0000000 )
                  (  0.0000000  1.0000000  0.0000000 )
                  (  0.0000000  0.0000000  1.0000000 )


      isym =  2     180 deg rotation - cart. axis [0,0,1]        

 cryst.   s( 2) = (    -1          0          0      )    f =(  0.0000000 )
                  (     0         -1          0      )       (  0.0000000 )
                  (     0          0          1      )       ( -0.5000000 )

 cart.    s( 2) = ( -1.0000000  0.0000000  0.0000000 )    f =(  0.0000000 )
                  (  0.0000000 -1.0000000  0.0000000 )       (  0.0000000 )
                  (  0.0000000  0.0000000  1.0000000 )       ( -0.8134800 )


      isym =  3      60 deg rotation - cryst. axis [0,0,1]       

 cryst.   s( 3) = (     1          1          0      )    f =(  0.0000000 )
                  (    -1          0          0      )       (  0.0000000 )
                  (     0          0          1      )       ( -0.5000000 )

 cart.    s( 3) = (  0.5000000 -0.8660254  0.0000000 )    f =(  0.0000000 )
                  (  0.8660254  0.5000000  0.0000000 )       (  0.0000000 )
                  (  0.0000000  0.0000000  1.0000000 )       ( -0.8134800 )


      isym =  4      60 deg rotation - cryst. axis [0,0,-1]      

 cryst.   s( 4) = (     0         -1          0      )    f =(  0.0000000 )
                  (     1          1          0      )       (  0.0000000 )
                  (     0          0          1      )       ( -0.5000000 )

 cart.    s( 4) = (  0.5000000  0.8660254  0.0000000 )    f =(  0.0000000 )
                  ( -0.8660254  0.5000000  0.0000000 )       (  0.0000000 )
                  (  0.0000000  0.0000000  1.0000000 )       ( -0.8134800 )


      isym =  5     120 deg rotation - cryst. axis [0,0,1]       

 cryst.   s( 5) = (     0          1          0      )
                  (    -1         -1          0      )
                  (     0          0          1      )

 cart.    s( 5) = ( -0.5000000 -0.8660254  0.0000000 )
                  (  0.8660254 -0.5000000  0.0000000 )
                  (  0.0000000  0.0000000  1.0000000 )


      isym =  6     120 deg rotation - cryst. axis [0,0,-1]      

 cryst.   s( 6) = (    -1         -1          0      )
                  (     1          0          0      )
                  (     0          0          1      )

 cart.    s( 6) = ( -0.5000000  0.8660254  0.0000000 )
                  ( -0.8660254 -0.5000000  0.0000000 )
                  (  0.0000000  0.0000000  1.0000000 )


      isym =  7     inv. 180 deg rotation - cart. axis [0,1,0]   

 cryst.   s( 7) = (     1          0          0      )    f =(  0.0000000 )
                  (    -1         -1          0      )       (  0.0000000 )
                  (     0          0          1      )       ( -0.5000000 )

 cart.    s( 7) = (  1.0000000  0.0000000  0.0000000 )    f =(  0.0000000 )
                  (  0.0000000 -1.0000000  0.0000000 )       (  0.0000000 )
                  (  0.0000000  0.0000000  1.0000000 )       ( -0.8134800 )


      isym =  8     inv. 180 deg rotation - cart. axis [1,0,0]   

 cryst.   s( 8) = (    -1          0          0      )
                  (     1          1          0      )
                  (     0          0          1      )

 cart.    s( 8) = ( -1.0000000  0.0000000  0.0000000 )
                  (  0.0000000  1.0000000  0.0000000 )
                  (  0.0000000  0.0000000  1.0000000 )


      isym =  9     inv. 180 deg rotation - cryst. axis [1,-1,0] 

 cryst.   s( 9) = (     0          1          0      )    f =(  0.0000000 )
                  (     1          0          0      )       (  0.0000000 )
                  (     0          0          1      )       ( -0.5000000 )

 cart.    s( 9) = ( -0.5000000  0.8660254  0.0000000 )    f =(  0.0000000 )
                  (  0.8660254  0.5000000  0.0000000 )       (  0.0000000 )
                  (  0.0000000  0.0000000  1.0000000 )       ( -0.8134800 )


      isym = 10     inv. 180 deg rotation - cryst. axis [2,1,0]  

 cryst.   s(10) = (    -1         -1          0      )    f =(  0.0000000 )
                  (     0          1          0      )       (  0.0000000 )
                  (     0          0          1      )       ( -0.5000000 )

 cart.    s(10) = ( -0.5000000 -0.8660254  0.0000000 )    f =(  0.0000000 )
                  ( -0.8660254  0.5000000  0.0000000 )       (  0.0000000 )
                  (  0.0000000  0.0000000  1.0000000 )       ( -0.8134800 )


      isym = 11     inv. 180 deg rotation - cryst. axis [0,1,0]  

 cryst.   s(11) = (     1          1          0      )
                  (     0         -1          0      )
                  (     0          0          1      )

 cart.    s(11) = (  0.5000000  0.8660254  0.0000000 )
                  (  0.8660254 -0.5000000  0.0000000 )
                  (  0.0000000  0.0000000  1.0000000 )


      isym = 12     inv. 180 deg rotation - cryst. axis [1,1,0]  

 cryst.   s(12) = (     0         -1          0      )
                  (    -1          0          0      )
                  (     0          0          1      )

 cart.    s(12) = (  0.5000000 -0.8660254  0.0000000 )
                  ( -0.8660254 -0.5000000  0.0000000 )
                  (  0.0000000  0.0000000  1.0000000 )


     point group C_6v (6mm) 
     there are  6 classes
     the character table:

       E     2C6   2C3   C2    3s_v  3s_d 
A_1    1.00  1.00  1.00  1.00  1.00  1.00
A_2    1.00  1.00  1.00  1.00 -1.00 -1.00
B_1    1.00 -1.00  1.00 -1.00  1.00 -1.00
B_2    1.00 -1.00  1.00 -1.00 -1.00  1.00
E_1    2.00  1.00 -1.00 -2.00  0.00  0.00
E_2    2.00 -1.00 -1.00  2.00  0.00  0.00

     the symmetry operations in each class and the name of the first element:

     E        1
          identity                                               
     2C6      3    4
           60 deg rotation - cryst. axis [0,0,1]                 
     2C3      5    6
          120 deg rotation - cryst. axis [0,0,1]                 
     C2       2
          180 deg rotation - cart. axis [0,0,1]                  
     3s_v     8   12   11
          inv. 180 deg rotation - cart. axis [1,0,0]             
     3s_d     7    9   10
          inv. 180 deg rotation - cart. axis [0,1,0]             

   Cartesian axes

     site n.     atom                  positions (alat units)
         1           Ga  tau(   1) = (   0.5000000   0.2886751   0.8119892  )
         2           Ga  tau(   2) = (   0.0000000   0.5773503   1.6254692  )
         3           N   tau(   3) = (   0.5000000   0.2886751   1.4250808  )
         4           N   tau(   4) = (   0.0000000   0.5773503   0.6116008  )

   Crystallographic axes

     site n.     atom                  positions (cryst. coord.)
         1           Ga  tau(   1) = (  0.6666667  0.3333333  0.4990837  )
         2           Ga  tau(   2) = (  0.3333333  0.6666667  0.9990837  )
         3           N   tau(   3) = (  0.6666667  0.3333333  0.8759163  )
         4           N   tau(   4) = (  0.3333333  0.6666667  0.3759163  )

     number of k points=  2160
                       cart. coord. in units 2pi/alat
        k(    1) = (   0.0000000   0.0000000   0.0000000), wk =   0.0000466
        k(    2) = (   0.0000000   0.0000000   0.0175612), wk =   0.0000933
        k(    3) = (   0.0000000   0.0000000   0.0351225), wk =   0.0000933
        k(    4) = (   0.0000000   0.0000000   0.0526837), wk =   0.0000933
        k(    5) = (   0.0000000   0.0000000   0.0702449), wk =   0.0000933
        k(    6) = (   0.0000000   0.0000000   0.0878062), wk =   0.0000933
        k(    7) = (   0.0000000   0.0000000   0.1053674), wk =   0.0000933
        k(    8) = (   0.0000000   0.0000000   0.1229287), wk =   0.0000933
        k(    9) = (   0.0000000   0.0000000   0.1404899), wk =   0.0000933
        k(   10) = (   0.0000000   0.0000000   0.1580511), wk =   0.0000933
        k(   11) = (   0.0000000   0.0000000   0.1756124), wk =   0.0000933
        k(   12) = (   0.0000000   0.0000000   0.1931736), wk =   0.0000933
        k(   13) = (   0.0000000   0.0000000   0.2107348), wk =   0.0000933
        k(   14) = (   0.0000000   0.0000000   0.2282961), wk =   0.0000933
        k(   15) = (   0.0000000   0.0000000   0.2458573), wk =   0.0000933
        k(   16) = (   0.0000000   0.0000000   0.2634185), wk =   0.0000933
        k(   17) = (   0.0000000   0.0000000   0.2809798), wk =   0.0000933
        k(   18) = (   0.0000000   0.0000000   0.2985410), wk =   0.0000933
        k(   19) = (   0.0000000   0.0329914   0.0000000), wk =   0.0002799
        k(   20) = (   0.0000000   0.0329914   0.0175612), wk =   0.0005598
        k(   21) = (   0.0000000   0.0329914   0.0351225), wk =   0.0005598
        k(   22) = (   0.0000000   0.0329914   0.0526837), wk =   0.0005598
        k(   23) = (   0.0000000   0.0329914   0.0702449), wk =   0.0005598
        k(   24) = (   0.0000000   0.0329914   0.0878062), wk =   0.0005598
        k(   25) = (   0.0000000   0.0329914   0.1053674), wk =   0.0005598
        k(   26) = (   0.0000000   0.0329914   0.1229287), wk =   0.0005598
        k(   27) = (   0.0000000   0.0329914   0.1404899), wk =   0.0005598
        k(   28) = (   0.0000000   0.0329914   0.1580511), wk =   0.0005598
        k(   29) = (   0.0000000   0.0329914   0.1756124), wk =   0.0005598
        k(   30) = (   0.0000000   0.0329914   0.1931736), wk =   0.0005598
        k(   31) = (   0.0000000   0.0329914   0.2107348), wk =   0.0005598
        k(   32) = (   0.0000000   0.0329914   0.2282961), wk =   0.0005598
        k(   33) = (   0.0000000   0.0329914   0.2458573), wk =   0.0005598
        k(   34) = (   0.0000000   0.0329914   0.2634185), wk =   0.0005598
        k(   35) = (   0.0000000   0.0329914   0.2809798), wk =   0.0005598
        k(   36) = (   0.0000000   0.0329914   0.2985410), wk =   0.0005598
        k(   37) = (   0.0000000   0.0659829   0.0000000), wk =   0.0002799
        k(   38) = (   0.0000000   0.0659829   0.0175612), wk =   0.0005598
        k(   39) = (   0.0000000   0.0659829   0.0351225), wk =   0.0005598
        k(   40) = (   0.0000000   0.0659829   0.0526837), wk =   0.0005598
        k(   41) = (   0.0000000   0.0659829   0.0702449), wk =   0.0005598
        k(   42) = (   0.0000000   0.0659829   0.0878062), wk =   0.0005598
        k(   43) = (   0.0000000   0.0659829   0.1053674), wk =   0.0005598
        k(   44) = (   0.0000000   0.0659829   0.1229287), wk =   0.0005598
        k(   45) = (   0.0000000   0.0659829   0.1404899), wk =   0.0005598
        k(   46) = (   0.0000000   0.0659829   0.1580511), wk =   0.0005598
        k(   47) = (   0.0000000   0.0659829   0.1756124), wk =   0.0005598
        k(   48) = (   0.0000000   0.0659829   0.1931736), wk =   0.0005598
        k(   49) = (   0.0000000   0.0659829   0.2107348), wk =   0.0005598
        k(   50) = (   0.0000000   0.0659829   0.2282961), wk =   0.0005598
        k(   51) = (   0.0000000   0.0659829   0.2458573), wk =   0.0005598
        k(   52) = (   0.0000000   0.0659829   0.2634185), wk =   0.0005598
        k(   53) = (   0.0000000   0.0659829   0.2809798), wk =   0.0005598
        k(   54) = (   0.0000000   0.0659829   0.2985410), wk =   0.0005598
        k(   55) = (   0.0000000   0.0989743   0.0000000), wk =   0.0002799
        k(   56) = (   0.0000000   0.0989743   0.0175612), wk =   0.0005598
        k(   57) = (   0.0000000   0.0989743   0.0351225), wk =   0.0005598
        k(   58) = (   0.0000000   0.0989743   0.0526837), wk =   0.0005598
        k(   59) = (   0.0000000   0.0989743   0.0702449), wk =   0.0005598
        k(   60) = (   0.0000000   0.0989743   0.0878062), wk =   0.0005598
        k(   61) = (   0.0000000   0.0989743   0.1053674), wk =   0.0005598
        k(   62) = (   0.0000000   0.0989743   0.1229287), wk =   0.0005598
        k(   63) = (   0.0000000   0.0989743   0.1404899), wk =   0.0005598
        k(   64) = (   0.0000000   0.0989743   0.1580511), wk =   0.0005598
        k(   65) = (   0.0000000   0.0989743   0.1756124), wk =   0.0005598
        k(   66) = (   0.0000000   0.0989743   0.1931736), wk =   0.0005598
        k(   67) = (   0.0000000   0.0989743   0.2107348), wk =   0.0005598
        k(   68) = (   0.0000000   0.0989743   0.2282961), wk =   0.0005598
        k(   69) = (   0.0000000   0.0989743   0.2458573), wk =   0.0005598
        k(   70) = (   0.0000000   0.0989743   0.2634185), wk =   0.0005598
        k(   71) = (   0.0000000   0.0989743   0.2809798), wk =   0.0005598
        k(   72) = (   0.0000000   0.0989743   0.2985410), wk =   0.0005598
        k(   73) = (   0.0000000   0.1319658   0.0000000), wk =   0.0002799
        k(   74) = (   0.0000000   0.1319658   0.0175612), wk =   0.0005598
        k(   75) = (   0.0000000   0.1319658   0.0351225), wk =   0.0005598
        k(   76) = (   0.0000000   0.1319658   0.0526837), wk =   0.0005598
        k(   77) = (   0.0000000   0.1319658   0.0702449), wk =   0.0005598
        k(   78) = (   0.0000000   0.1319658   0.0878062), wk =   0.0005598
        k(   79) = (   0.0000000   0.1319658   0.1053674), wk =   0.0005598
        k(   80) = (   0.0000000   0.1319658   0.1229287), wk =   0.0005598
        k(   81) = (   0.0000000   0.1319658   0.1404899), wk =   0.0005598
        k(   82) = (   0.0000000   0.1319658   0.1580511), wk =   0.0005598
        k(   83) = (   0.0000000   0.1319658   0.1756124), wk =   0.0005598
        k(   84) = (   0.0000000   0.1319658   0.1931736), wk =   0.0005598
        k(   85) = (   0.0000000   0.1319658   0.2107348), wk =   0.0005598
        k(   86) = (   0.0000000   0.1319658   0.2282961), wk =   0.0005598
        k(   87) = (   0.0000000   0.1319658   0.2458573), wk =   0.0005598
        k(   88) = (   0.0000000   0.1319658   0.2634185), wk =   0.0005598
        k(   89) = (   0.0000000   0.1319658   0.2809798), wk =   0.0005598
        k(   90) = (   0.0000000   0.1319658   0.2985410), wk =   0.0005598
        k(   91) = (   0.0000000   0.1649572   0.0000000), wk =   0.0002799
        k(   92) = (   0.0000000   0.1649572   0.0175612), wk =   0.0005598
        k(   93) = (   0.0000000   0.1649572   0.0351225), wk =   0.0005598
        k(   94) = (   0.0000000   0.1649572   0.0526837), wk =   0.0005598
        k(   95) = (   0.0000000   0.1649572   0.0702449), wk =   0.0005598
        k(   96) = (   0.0000000   0.1649572   0.0878062), wk =   0.0005598
        k(   97) = (   0.0000000   0.1649572   0.1053674), wk =   0.0005598
        k(   98) = (   0.0000000   0.1649572   0.1229287), wk =   0.0005598
        k(   99) = (   0.0000000   0.1649572   0.1404899), wk =   0.0005598
        k(  100) = (   0.0000000   0.1649572   0.1580511), wk =   0.0005598
        k(  101) = (   0.0000000   0.1649572   0.1756124), wk =   0.0005598
        k(  102) = (   0.0000000   0.1649572   0.1931736), wk =   0.0005598
        k(  103) = (   0.0000000   0.1649572   0.2107348), wk =   0.0005598
        k(  104) = (   0.0000000   0.1649572   0.2282961), wk =   0.0005598
        k(  105) = (   0.0000000   0.1649572   0.2458573), wk =   0.0005598
        k(  106) = (   0.0000000   0.1649572   0.2634185), wk =   0.0005598
        k(  107) = (   0.0000000   0.1649572   0.2809798), wk =   0.0005598
        k(  108) = (   0.0000000   0.1649572   0.2985410), wk =   0.0005598
        k(  109) = (   0.0000000   0.1979487   0.0000000), wk =   0.0002799
        k(  110) = (   0.0000000   0.1979487   0.0175612), wk =   0.0005598
        k(  111) = (   0.0000000   0.1979487   0.0351225), wk =   0.0005598
        k(  112) = (   0.0000000   0.1979487   0.0526837), wk =   0.0005598
        k(  113) = (   0.0000000   0.1979487   0.0702449), wk =   0.0005598
        k(  114) = (   0.0000000   0.1979487   0.0878062), wk =   0.0005598
        k(  115) = (   0.0000000   0.1979487   0.1053674), wk =   0.0005598
        k(  116) = (   0.0000000   0.1979487   0.1229287), wk =   0.0005598
        k(  117) = (   0.0000000   0.1979487   0.1404899), wk =   0.0005598
        k(  118) = (   0.0000000   0.1979487   0.1580511), wk =   0.0005598
        k(  119) = (   0.0000000   0.1979487   0.1756124), wk =   0.0005598
        k(  120) = (   0.0000000   0.1979487   0.1931736), wk =   0.0005598
        k(  121) = (   0.0000000   0.1979487   0.2107348), wk =   0.0005598
        k(  122) = (   0.0000000   0.1979487   0.2282961), wk =   0.0005598
        k(  123) = (   0.0000000   0.1979487   0.2458573), wk =   0.0005598
        k(  124) = (   0.0000000   0.1979487   0.2634185), wk =   0.0005598
        k(  125) = (   0.0000000   0.1979487   0.2809798), wk =   0.0005598
        k(  126) = (   0.0000000   0.1979487   0.2985410), wk =   0.0005598
        k(  127) = (   0.0000000   0.2309401   0.0000000), wk =   0.0002799
        k(  128) = (   0.0000000   0.2309401   0.0175612), wk =   0.0005598
        k(  129) = (   0.0000000   0.2309401   0.0351225), wk =   0.0005598
        k(  130) = (   0.0000000   0.2309401   0.0526837), wk =   0.0005598
        k(  131) = (   0.0000000   0.2309401   0.0702449), wk =   0.0005598
        k(  132) = (   0.0000000   0.2309401   0.0878062), wk =   0.0005598
        k(  133) = (   0.0000000   0.2309401   0.1053674), wk =   0.0005598
        k(  134) = (   0.0000000   0.2309401   0.1229287), wk =   0.0005598
        k(  135) = (   0.0000000   0.2309401   0.1404899), wk =   0.0005598
        k(  136) = (   0.0000000   0.2309401   0.1580511), wk =   0.0005598
        k(  137) = (   0.0000000   0.2309401   0.1756124), wk =   0.0005598
        k(  138) = (   0.0000000   0.2309401   0.1931736), wk =   0.0005598
        k(  139) = (   0.0000000   0.2309401   0.2107348), wk =   0.0005598
        k(  140) = (   0.0000000   0.2309401   0.2282961), wk =   0.0005598
        k(  141) = (   0.0000000   0.2309401   0.2458573), wk =   0.0005598
        k(  142) = (   0.0000000   0.2309401   0.2634185), wk =   0.0005598
        k(  143) = (   0.0000000   0.2309401   0.2809798), wk =   0.0005598
        k(  144) = (   0.0000000   0.2309401   0.2985410), wk =   0.0005598
        k(  145) = (   0.0000000   0.2639316   0.0000000), wk =   0.0002799
        k(  146) = (   0.0000000   0.2639316   0.0175612), wk =   0.0005598
        k(  147) = (   0.0000000   0.2639316   0.0351225), wk =   0.0005598
        k(  148) = (   0.0000000   0.2639316   0.0526837), wk =   0.0005598
        k(  149) = (   0.0000000   0.2639316   0.0702449), wk =   0.0005598
        k(  150) = (   0.0000000   0.2639316   0.0878062), wk =   0.0005598
        k(  151) = (   0.0000000   0.2639316   0.1053674), wk =   0.0005598
        k(  152) = (   0.0000000   0.2639316   0.1229287), wk =   0.0005598
        k(  153) = (   0.0000000   0.2639316   0.1404899), wk =   0.0005598
        k(  154) = (   0.0000000   0.2639316   0.1580511), wk =   0.0005598
        k(  155) = (   0.0000000   0.2639316   0.1756124), wk =   0.0005598
        k(  156) = (   0.0000000   0.2639316   0.1931736), wk =   0.0005598
        k(  157) = (   0.0000000   0.2639316   0.2107348), wk =   0.0005598
        k(  158) = (   0.0000000   0.2639316   0.2282961), wk =   0.0005598
        k(  159) = (   0.0000000   0.2639316   0.2458573), wk =   0.0005598
        k(  160) = (   0.0000000   0.2639316   0.2634185), wk =   0.0005598
        k(  161) = (   0.0000000   0.2639316   0.2809798), wk =   0.0005598
        k(  162) = (   0.0000000   0.2639316   0.2985410), wk =   0.0005598
        k(  163) = (   0.0000000   0.2969230   0.0000000), wk =   0.0002799
        k(  164) = (   0.0000000   0.2969230   0.0175612), wk =   0.0005598
        k(  165) = (   0.0000000   0.2969230   0.0351225), wk =   0.0005598
        k(  166) = (   0.0000000   0.2969230   0.0526837), wk =   0.0005598
        k(  167) = (   0.0000000   0.2969230   0.0702449), wk =   0.0005598
        k(  168) = (   0.0000000   0.2969230   0.0878062), wk =   0.0005598
        k(  169) = (   0.0000000   0.2969230   0.1053674), wk =   0.0005598
        k(  170) = (   0.0000000   0.2969230   0.1229287), wk =   0.0005598
        k(  171) = (   0.0000000   0.2969230   0.1404899), wk =   0.0005598
        k(  172) = (   0.0000000   0.2969230   0.1580511), wk =   0.0005598
        k(  173) = (   0.0000000   0.2969230   0.1756124), wk =   0.0005598
        k(  174) = (   0.0000000   0.2969230   0.1931736), wk =   0.0005598
        k(  175) = (   0.0000000   0.2969230   0.2107348), wk =   0.0005598
        k(  176) = (   0.0000000   0.2969230   0.2282961), wk =   0.0005598
        k(  177) = (   0.0000000   0.2969230   0.2458573), wk =   0.0005598
        k(  178) = (   0.0000000   0.2969230   0.2634185), wk =   0.0005598
        k(  179) = (   0.0000000   0.2969230   0.2809798), wk =   0.0005598
        k(  180) = (   0.0000000   0.2969230   0.2985410), wk =   0.0005598
        k(  181) = (   0.0000000   0.3299144   0.0000000), wk =   0.0002799
        k(  182) = (   0.0000000   0.3299144   0.0175612), wk =   0.0005598
        k(  183) = (   0.0000000   0.3299144   0.0351225), wk =   0.0005598
        k(  184) = (   0.0000000   0.3299144   0.0526837), wk =   0.0005598
        k(  185) = (   0.0000000   0.3299144   0.0702449), wk =   0.0005598
        k(  186) = (   0.0000000   0.3299144   0.0878062), wk =   0.0005598
        k(  187) = (   0.0000000   0.3299144   0.1053674), wk =   0.0005598
        k(  188) = (   0.0000000   0.3299144   0.1229287), wk =   0.0005598
        k(  189) = (   0.0000000   0.3299144   0.1404899), wk =   0.0005598
        k(  190) = (   0.0000000   0.3299144   0.1580511), wk =   0.0005598
        k(  191) = (   0.0000000   0.3299144   0.1756124), wk =   0.0005598
        k(  192) = (   0.0000000   0.3299144   0.1931736), wk =   0.0005598
        k(  193) = (   0.0000000   0.3299144   0.2107348), wk =   0.0005598
        k(  194) = (   0.0000000   0.3299144   0.2282961), wk =   0.0005598
        k(  195) = (   0.0000000   0.3299144   0.2458573), wk =   0.0005598
        k(  196) = (   0.0000000   0.3299144   0.2634185), wk =   0.0005598
        k(  197) = (   0.0000000   0.3299144   0.2809798), wk =   0.0005598
        k(  198) = (   0.0000000   0.3299144   0.2985410), wk =   0.0005598
        k(  199) = (   0.0000000   0.3629059   0.0000000), wk =   0.0002799
        k(  200) = (   0.0000000   0.3629059   0.0175612), wk =   0.0005598
        k(  201) = (   0.0000000   0.3629059   0.0351225), wk =   0.0005598
        k(  202) = (   0.0000000   0.3629059   0.0526837), wk =   0.0005598
        k(  203) = (   0.0000000   0.3629059   0.0702449), wk =   0.0005598
        k(  204) = (   0.0000000   0.3629059   0.0878062), wk =   0.0005598
        k(  205) = (   0.0000000   0.3629059   0.1053674), wk =   0.0005598
        k(  206) = (   0.0000000   0.3629059   0.1229287), wk =   0.0005598
        k(  207) = (   0.0000000   0.3629059   0.1404899), wk =   0.0005598
        k(  208) = (   0.0000000   0.3629059   0.1580511), wk =   0.0005598
        k(  209) = (   0.0000000   0.3629059   0.1756124), wk =   0.0005598
        k(  210) = (   0.0000000   0.3629059   0.1931736), wk =   0.0005598
        k(  211) = (   0.0000000   0.3629059   0.2107348), wk =   0.0005598
        k(  212) = (   0.0000000   0.3629059   0.2282961), wk =   0.0005598
        k(  213) = (   0.0000000   0.3629059   0.2458573), wk =   0.0005598
        k(  214) = (   0.0000000   0.3629059   0.2634185), wk =   0.0005598
        k(  215) = (   0.0000000   0.3629059   0.2809798), wk =   0.0005598
        k(  216) = (   0.0000000   0.3629059   0.2985410), wk =   0.0005598
        k(  217) = (   0.0000000   0.3958973   0.0000000), wk =   0.0002799
        k(  218) = (   0.0000000   0.3958973   0.0175612), wk =   0.0005598
        k(  219) = (   0.0000000   0.3958973   0.0351225), wk =   0.0005598
        k(  220) = (   0.0000000   0.3958973   0.0526837), wk =   0.0005598
        k(  221) = (   0.0000000   0.3958973   0.0702449), wk =   0.0005598
        k(  222) = (   0.0000000   0.3958973   0.0878062), wk =   0.0005598
        k(  223) = (   0.0000000   0.3958973   0.1053674), wk =   0.0005598
        k(  224) = (   0.0000000   0.3958973   0.1229287), wk =   0.0005598
        k(  225) = (   0.0000000   0.3958973   0.1404899), wk =   0.0005598
        k(  226) = (   0.0000000   0.3958973   0.1580511), wk =   0.0005598
        k(  227) = (   0.0000000   0.3958973   0.1756124), wk =   0.0005598
        k(  228) = (   0.0000000   0.3958973   0.1931736), wk =   0.0005598
        k(  229) = (   0.0000000   0.3958973   0.2107348), wk =   0.0005598
        k(  230) = (   0.0000000   0.3958973   0.2282961), wk =   0.0005598
        k(  231) = (   0.0000000   0.3958973   0.2458573), wk =   0.0005598
        k(  232) = (   0.0000000   0.3958973   0.2634185), wk =   0.0005598
        k(  233) = (   0.0000000   0.3958973   0.2809798), wk =   0.0005598
        k(  234) = (   0.0000000   0.3958973   0.2985410), wk =   0.0005598
        k(  235) = (   0.0000000   0.4288888   0.0000000), wk =   0.0002799
        k(  236) = (   0.0000000   0.4288888   0.0175612), wk =   0.0005598
        k(  237) = (   0.0000000   0.4288888   0.0351225), wk =   0.0005598
        k(  238) = (   0.0000000   0.4288888   0.0526837), wk =   0.0005598
        k(  239) = (   0.0000000   0.4288888   0.0702449), wk =   0.0005598
        k(  240) = (   0.0000000   0.4288888   0.0878062), wk =   0.0005598
        k(  241) = (   0.0000000   0.4288888   0.1053674), wk =   0.0005598
        k(  242) = (   0.0000000   0.4288888   0.1229287), wk =   0.0005598
        k(  243) = (   0.0000000   0.4288888   0.1404899), wk =   0.0005598
        k(  244) = (   0.0000000   0.4288888   0.1580511), wk =   0.0005598
        k(  245) = (   0.0000000   0.4288888   0.1756124), wk =   0.0005598
        k(  246) = (   0.0000000   0.4288888   0.1931736), wk =   0.0005598
        k(  247) = (   0.0000000   0.4288888   0.2107348), wk =   0.0005598
        k(  248) = (   0.0000000   0.4288888   0.2282961), wk =   0.0005598
        k(  249) = (   0.0000000   0.4288888   0.2458573), wk =   0.0005598
        k(  250) = (   0.0000000   0.4288888   0.2634185), wk =   0.0005598
        k(  251) = (   0.0000000   0.4288888   0.2809798), wk =   0.0005598
        k(  252) = (   0.0000000   0.4288888   0.2985410), wk =   0.0005598
        k(  253) = (   0.0000000   0.4618802   0.0000000), wk =   0.0002799
        k(  254) = (   0.0000000   0.4618802   0.0175612), wk =   0.0005598
        k(  255) = (   0.0000000   0.4618802   0.0351225), wk =   0.0005598
        k(  256) = (   0.0000000   0.4618802   0.0526837), wk =   0.0005598
        k(  257) = (   0.0000000   0.4618802   0.0702449), wk =   0.0005598
        k(  258) = (   0.0000000   0.4618802   0.0878062), wk =   0.0005598
        k(  259) = (   0.0000000   0.4618802   0.1053674), wk =   0.0005598
        k(  260) = (   0.0000000   0.4618802   0.1229287), wk =   0.0005598
        k(  261) = (   0.0000000   0.4618802   0.1404899), wk =   0.0005598
        k(  262) = (   0.0000000   0.4618802   0.1580511), wk =   0.0005598
        k(  263) = (   0.0000000   0.4618802   0.1756124), wk =   0.0005598
        k(  264) = (   0.0000000   0.4618802   0.1931736), wk =   0.0005598
        k(  265) = (   0.0000000   0.4618802   0.2107348), wk =   0.0005598
        k(  266) = (   0.0000000   0.4618802   0.2282961), wk =   0.0005598
        k(  267) = (   0.0000000   0.4618802   0.2458573), wk =   0.0005598
        k(  268) = (   0.0000000   0.4618802   0.2634185), wk =   0.0005598
        k(  269) = (   0.0000000   0.4618802   0.2809798), wk =   0.0005598
        k(  270) = (   0.0000000   0.4618802   0.2985410), wk =   0.0005598
        k(  271) = (   0.0000000   0.4948717   0.0000000), wk =   0.0002799
        k(  272) = (   0.0000000   0.4948717   0.0175612), wk =   0.0005598
        k(  273) = (   0.0000000   0.4948717   0.0351225), wk =   0.0005598
        k(  274) = (   0.0000000   0.4948717   0.0526837), wk =   0.0005598
        k(  275) = (   0.0000000   0.4948717   0.0702449), wk =   0.0005598
        k(  276) = (   0.0000000   0.4948717   0.0878062), wk =   0.0005598
        k(  277) = (   0.0000000   0.4948717   0.1053674), wk =   0.0005598
        k(  278) = (   0.0000000   0.4948717   0.1229287), wk =   0.0005598
        k(  279) = (   0.0000000   0.4948717   0.1404899), wk =   0.0005598
        k(  280) = (   0.0000000   0.4948717   0.1580511), wk =   0.0005598
        k(  281) = (   0.0000000   0.4948717   0.1756124), wk =   0.0005598
        k(  282) = (   0.0000000   0.4948717   0.1931736), wk =   0.0005598
        k(  283) = (   0.0000000   0.4948717   0.2107348), wk =   0.0005598
        k(  284) = (   0.0000000   0.4948717   0.2282961), wk =   0.0005598
        k(  285) = (   0.0000000   0.4948717   0.2458573), wk =   0.0005598
        k(  286) = (   0.0000000   0.4948717   0.2634185), wk =   0.0005598
        k(  287) = (   0.0000000   0.4948717   0.2809798), wk =   0.0005598
        k(  288) = (   0.0000000   0.4948717   0.2985410), wk =   0.0005598
        k(  289) = (   0.0000000   0.5278631   0.0000000), wk =   0.0002799
        k(  290) = (   0.0000000   0.5278631   0.0175612), wk =   0.0005598
        k(  291) = (   0.0000000   0.5278631   0.0351225), wk =   0.0005598
        k(  292) = (   0.0000000   0.5278631   0.0526837), wk =   0.0005598
        k(  293) = (   0.0000000   0.5278631   0.0702449), wk =   0.0005598
        k(  294) = (   0.0000000   0.5278631   0.0878062), wk =   0.0005598
        k(  295) = (   0.0000000   0.5278631   0.1053674), wk =   0.0005598
        k(  296) = (   0.0000000   0.5278631   0.1229287), wk =   0.0005598
        k(  297) = (   0.0000000   0.5278631   0.1404899), wk =   0.0005598
        k(  298) = (   0.0000000   0.5278631   0.1580511), wk =   0.0005598
        k(  299) = (   0.0000000   0.5278631   0.1756124), wk =   0.0005598
        k(  300) = (   0.0000000   0.5278631   0.1931736), wk =   0.0005598
        k(  301) = (   0.0000000   0.5278631   0.2107348), wk =   0.0005598
        k(  302) = (   0.0000000   0.5278631   0.2282961), wk =   0.0005598
        k(  303) = (   0.0000000   0.5278631   0.2458573), wk =   0.0005598
        k(  304) = (   0.0000000   0.5278631   0.2634185), wk =   0.0005598
        k(  305) = (   0.0000000   0.5278631   0.2809798), wk =   0.0005598
        k(  306) = (   0.0000000   0.5278631   0.2985410), wk =   0.0005598
        k(  307) = (   0.0000000   0.5608545   0.0000000), wk =   0.0002799
        k(  308) = (   0.0000000   0.5608545   0.0175612), wk =   0.0005598
        k(  309) = (   0.0000000   0.5608545   0.0351225), wk =   0.0005598
        k(  310) = (   0.0000000   0.5608545   0.0526837), wk =   0.0005598
        k(  311) = (   0.0000000   0.5608545   0.0702449), wk =   0.0005598
        k(  312) = (   0.0000000   0.5608545   0.0878062), wk =   0.0005598
        k(  313) = (   0.0000000   0.5608545   0.1053674), wk =   0.0005598
        k(  314) = (   0.0000000   0.5608545   0.1229287), wk =   0.0005598
        k(  315) = (   0.0000000   0.5608545   0.1404899), wk =   0.0005598
        k(  316) = (   0.0000000   0.5608545   0.1580511), wk =   0.0005598
        k(  317) = (   0.0000000   0.5608545   0.1756124), wk =   0.0005598
        k(  318) = (   0.0000000   0.5608545   0.1931736), wk =   0.0005598
        k(  319) = (   0.0000000   0.5608545   0.2107348), wk =   0.0005598
        k(  320) = (   0.0000000   0.5608545   0.2282961), wk =   0.0005598
        k(  321) = (   0.0000000   0.5608545   0.2458573), wk =   0.0005598
        k(  322) = (   0.0000000   0.5608545   0.2634185), wk =   0.0005598
        k(  323) = (   0.0000000   0.5608545   0.2809798), wk =   0.0005598
        k(  324) = (   0.0000000   0.5608545   0.2985410), wk =   0.0005598
        k(  325) = (   0.0285714   0.0494872   0.0000000), wk =   0.0002799
        k(  326) = (   0.0285714   0.0494872   0.0175612), wk =   0.0005598
        k(  327) = (   0.0285714   0.0494872   0.0351225), wk =   0.0005598
        k(  328) = (   0.0285714   0.0494872   0.0526837), wk =   0.0005598
        k(  329) = (   0.0285714   0.0494872   0.0702449), wk =   0.0005598
        k(  330) = (   0.0285714   0.0494872   0.0878062), wk =   0.0005598
        k(  331) = (   0.0285714   0.0494872   0.1053674), wk =   0.0005598
        k(  332) = (   0.0285714   0.0494872   0.1229287), wk =   0.0005598
        k(  333) = (   0.0285714   0.0494872   0.1404899), wk =   0.0005598
        k(  334) = (   0.0285714   0.0494872   0.1580511), wk =   0.0005598
        k(  335) = (   0.0285714   0.0494872   0.1756124), wk =   0.0005598
        k(  336) = (   0.0285714   0.0494872   0.1931736), wk =   0.0005598
        k(  337) = (   0.0285714   0.0494872   0.2107348), wk =   0.0005598
        k(  338) = (   0.0285714   0.0494872   0.2282961), wk =   0.0005598
        k(  339) = (   0.0285714   0.0494872   0.2458573), wk =   0.0005598
        k(  340) = (   0.0285714   0.0494872   0.2634185), wk =   0.0005598
        k(  341) = (   0.0285714   0.0494872   0.2809798), wk =   0.0005598
        k(  342) = (   0.0285714   0.0494872   0.2985410), wk =   0.0005598
        k(  343) = (   0.0285714   0.0824786   0.0000000), wk =   0.0005598
        k(  344) = (   0.0285714   0.0824786   0.0175612), wk =   0.0011195
        k(  345) = (   0.0285714   0.0824786   0.0351225), wk =   0.0011195
        k(  346) = (   0.0285714   0.0824786   0.0526837), wk =   0.0011195
        k(  347) = (   0.0285714   0.0824786   0.0702449), wk =   0.0011195
        k(  348) = (   0.0285714   0.0824786   0.0878062), wk =   0.0011195
        k(  349) = (   0.0285714   0.0824786   0.1053674), wk =   0.0011195
        k(  350) = (   0.0285714   0.0824786   0.1229287), wk =   0.0011195
        k(  351) = (   0.0285714   0.0824786   0.1404899), wk =   0.0011195
        k(  352) = (   0.0285714   0.0824786   0.1580511), wk =   0.0011195
        k(  353) = (   0.0285714   0.0824786   0.1756124), wk =   0.0011195
        k(  354) = (   0.0285714   0.0824786   0.1931736), wk =   0.0011195
        k(  355) = (   0.0285714   0.0824786   0.2107348), wk =   0.0011195
        k(  356) = (   0.0285714   0.0824786   0.2282961), wk =   0.0011195
        k(  357) = (   0.0285714   0.0824786   0.2458573), wk =   0.0011195
        k(  358) = (   0.0285714   0.0824786   0.2634185), wk =   0.0011195
        k(  359) = (   0.0285714   0.0824786   0.2809798), wk =   0.0011195
        k(  360) = (   0.0285714   0.0824786   0.2985410), wk =   0.0011195
        k(  361) = (   0.0285714   0.1154701   0.0000000), wk =   0.0005598
        k(  362) = (   0.0285714   0.1154701   0.0175612), wk =   0.0011195
        k(  363) = (   0.0285714   0.1154701   0.0351225), wk =   0.0011195
        k(  364) = (   0.0285714   0.1154701   0.0526837), wk =   0.0011195
        k(  365) = (   0.0285714   0.1154701   0.0702449), wk =   0.0011195
        k(  366) = (   0.0285714   0.1154701   0.0878062), wk =   0.0011195
        k(  367) = (   0.0285714   0.1154701   0.1053674), wk =   0.0011195
        k(  368) = (   0.0285714   0.1154701   0.1229287), wk =   0.0011195
        k(  369) = (   0.0285714   0.1154701   0.1404899), wk =   0.0011195
        k(  370) = (   0.0285714   0.1154701   0.1580511), wk =   0.0011195
        k(  371) = (   0.0285714   0.1154701   0.1756124), wk =   0.0011195
        k(  372) = (   0.0285714   0.1154701   0.1931736), wk =   0.0011195
        k(  373) = (   0.0285714   0.1154701   0.2107348), wk =   0.0011195
        k(  374) = (   0.0285714   0.1154701   0.2282961), wk =   0.0011195
        k(  375) = (   0.0285714   0.1154701   0.2458573), wk =   0.0011195
        k(  376) = (   0.0285714   0.1154701   0.2634185), wk =   0.0011195
        k(  377) = (   0.0285714   0.1154701   0.2809798), wk =   0.0011195
        k(  378) = (   0.0285714   0.1154701   0.2985410), wk =   0.0011195
        k(  379) = (   0.0285714   0.1484615   0.0000000), wk =   0.0005598
        k(  380) = (   0.0285714   0.1484615   0.0175612), wk =   0.0011195
        k(  381) = (   0.0285714   0.1484615   0.0351225), wk =   0.0011195
        k(  382) = (   0.0285714   0.1484615   0.0526837), wk =   0.0011195
        k(  383) = (   0.0285714   0.1484615   0.0702449), wk =   0.0011195
        k(  384) = (   0.0285714   0.1484615   0.0878062), wk =   0.0011195
        k(  385) = (   0.0285714   0.1484615   0.1053674), wk =   0.0011195
        k(  386) = (   0.0285714   0.1484615   0.1229287), wk =   0.0011195
        k(  387) = (   0.0285714   0.1484615   0.1404899), wk =   0.0011195
        k(  388) = (   0.0285714   0.1484615   0.1580511), wk =   0.0011195
        k(  389) = (   0.0285714   0.1484615   0.1756124), wk =   0.0011195
        k(  390) = (   0.0285714   0.1484615   0.1931736), wk =   0.0011195
        k(  391) = (   0.0285714   0.1484615   0.2107348), wk =   0.0011195
        k(  392) = (   0.0285714   0.1484615   0.2282961), wk =   0.0011195
        k(  393) = (   0.0285714   0.1484615   0.2458573), wk =   0.0011195
        k(  394) = (   0.0285714   0.1484615   0.2634185), wk =   0.0011195
        k(  395) = (   0.0285714   0.1484615   0.2809798), wk =   0.0011195
        k(  396) = (   0.0285714   0.1484615   0.2985410), wk =   0.0011195
        k(  397) = (   0.0285714   0.1814529   0.0000000), wk =   0.0005598
        k(  398) = (   0.0285714   0.1814529   0.0175612), wk =   0.0011195
        k(  399) = (   0.0285714   0.1814529   0.0351225), wk =   0.0011195
        k(  400) = (   0.0285714   0.1814529   0.0526837), wk =   0.0011195
        k(  401) = (   0.0285714   0.1814529   0.0702449), wk =   0.0011195
        k(  402) = (   0.0285714   0.1814529   0.0878062), wk =   0.0011195
        k(  403) = (   0.0285714   0.1814529   0.1053674), wk =   0.0011195
        k(  404) = (   0.0285714   0.1814529   0.1229287), wk =   0.0011195
        k(  405) = (   0.0285714   0.1814529   0.1404899), wk =   0.0011195
        k(  406) = (   0.0285714   0.1814529   0.1580511), wk =   0.0011195
        k(  407) = (   0.0285714   0.1814529   0.1756124), wk =   0.0011195
        k(  408) = (   0.0285714   0.1814529   0.1931736), wk =   0.0011195
        k(  409) = (   0.0285714   0.1814529   0.2107348), wk =   0.0011195
        k(  410) = (   0.0285714   0.1814529   0.2282961), wk =   0.0011195
        k(  411) = (   0.0285714   0.1814529   0.2458573), wk =   0.0011195
        k(  412) = (   0.0285714   0.1814529   0.2634185), wk =   0.0011195
        k(  413) = (   0.0285714   0.1814529   0.2809798), wk =   0.0011195
        k(  414) = (   0.0285714   0.1814529   0.2985410), wk =   0.0011195
        k(  415) = (   0.0285714   0.2144444   0.0000000), wk =   0.0005598
        k(  416) = (   0.0285714   0.2144444   0.0175612), wk =   0.0011195
        k(  417) = (   0.0285714   0.2144444   0.0351225), wk =   0.0011195
        k(  418) = (   0.0285714   0.2144444   0.0526837), wk =   0.0011195
        k(  419) = (   0.0285714   0.2144444   0.0702449), wk =   0.0011195
        k(  420) = (   0.0285714   0.2144444   0.0878062), wk =   0.0011195
        k(  421) = (   0.0285714   0.2144444   0.1053674), wk =   0.0011195
        k(  422) = (   0.0285714   0.2144444   0.1229287), wk =   0.0011195
        k(  423) = (   0.0285714   0.2144444   0.1404899), wk =   0.0011195
        k(  424) = (   0.0285714   0.2144444   0.1580511), wk =   0.0011195
        k(  425) = (   0.0285714   0.2144444   0.1756124), wk =   0.0011195
        k(  426) = (   0.0285714   0.2144444   0.1931736), wk =   0.0011195
        k(  427) = (   0.0285714   0.2144444   0.2107348), wk =   0.0011195
        k(  428) = (   0.0285714   0.2144444   0.2282961), wk =   0.0011195
        k(  429) = (   0.0285714   0.2144444   0.2458573), wk =   0.0011195
        k(  430) = (   0.0285714   0.2144444   0.2634185), wk =   0.0011195
        k(  431) = (   0.0285714   0.2144444   0.2809798), wk =   0.0011195
        k(  432) = (   0.0285714   0.2144444   0.2985410), wk =   0.0011195
        k(  433) = (   0.0285714   0.2474358   0.0000000), wk =   0.0005598
        k(  434) = (   0.0285714   0.2474358   0.0175612), wk =   0.0011195
        k(  435) = (   0.0285714   0.2474358   0.0351225), wk =   0.0011195
        k(  436) = (   0.0285714   0.2474358   0.0526837), wk =   0.0011195
        k(  437) = (   0.0285714   0.2474358   0.0702449), wk =   0.0011195
        k(  438) = (   0.0285714   0.2474358   0.0878062), wk =   0.0011195
        k(  439) = (   0.0285714   0.2474358   0.1053674), wk =   0.0011195
        k(  440) = (   0.0285714   0.2474358   0.1229287), wk =   0.0011195
        k(  441) = (   0.0285714   0.2474358   0.1404899), wk =   0.0011195
        k(  442) = (   0.0285714   0.2474358   0.1580511), wk =   0.0011195
        k(  443) = (   0.0285714   0.2474358   0.1756124), wk =   0.0011195
        k(  444) = (   0.0285714   0.2474358   0.1931736), wk =   0.0011195
        k(  445) = (   0.0285714   0.2474358   0.2107348), wk =   0.0011195
        k(  446) = (   0.0285714   0.2474358   0.2282961), wk =   0.0011195
        k(  447) = (   0.0285714   0.2474358   0.2458573), wk =   0.0011195
        k(  448) = (   0.0285714   0.2474358   0.2634185), wk =   0.0011195
        k(  449) = (   0.0285714   0.2474358   0.2809798), wk =   0.0011195
        k(  450) = (   0.0285714   0.2474358   0.2985410), wk =   0.0011195
        k(  451) = (   0.0285714   0.2804273   0.0000000), wk =   0.0005598
        k(  452) = (   0.0285714   0.2804273   0.0175612), wk =   0.0011195
        k(  453) = (   0.0285714   0.2804273   0.0351225), wk =   0.0011195
        k(  454) = (   0.0285714   0.2804273   0.0526837), wk =   0.0011195
        k(  455) = (   0.0285714   0.2804273   0.0702449), wk =   0.0011195
        k(  456) = (   0.0285714   0.2804273   0.0878062), wk =   0.0011195
        k(  457) = (   0.0285714   0.2804273   0.1053674), wk =   0.0011195
        k(  458) = (   0.0285714   0.2804273   0.1229287), wk =   0.0011195
        k(  459) = (   0.0285714   0.2804273   0.1404899), wk =   0.0011195
        k(  460) = (   0.0285714   0.2804273   0.1580511), wk =   0.0011195
        k(  461) = (   0.0285714   0.2804273   0.1756124), wk =   0.0011195
        k(  462) = (   0.0285714   0.2804273   0.1931736), wk =   0.0011195
        k(  463) = (   0.0285714   0.2804273   0.2107348), wk =   0.0011195
        k(  464) = (   0.0285714   0.2804273   0.2282961), wk =   0.0011195
        k(  465) = (   0.0285714   0.2804273   0.2458573), wk =   0.0011195
        k(  466) = (   0.0285714   0.2804273   0.2634185), wk =   0.0011195
        k(  467) = (   0.0285714   0.2804273   0.2809798), wk =   0.0011195
        k(  468) = (   0.0285714   0.2804273   0.2985410), wk =   0.0011195
        k(  469) = (   0.0285714   0.3134187   0.0000000), wk =   0.0005598
        k(  470) = (   0.0285714   0.3134187   0.0175612), wk =   0.0011195
        k(  471) = (   0.0285714   0.3134187   0.0351225), wk =   0.0011195
        k(  472) = (   0.0285714   0.3134187   0.0526837), wk =   0.0011195
        k(  473) = (   0.0285714   0.3134187   0.0702449), wk =   0.0011195
        k(  474) = (   0.0285714   0.3134187   0.0878062), wk =   0.0011195
        k(  475) = (   0.0285714   0.3134187   0.1053674), wk =   0.0011195
        k(  476) = (   0.0285714   0.3134187   0.1229287), wk =   0.0011195
        k(  477) = (   0.0285714   0.3134187   0.1404899), wk =   0.0011195
        k(  478) = (   0.0285714   0.3134187   0.1580511), wk =   0.0011195
        k(  479) = (   0.0285714   0.3134187   0.1756124), wk =   0.0011195
        k(  480) = (   0.0285714   0.3134187   0.1931736), wk =   0.0011195
        k(  481) = (   0.0285714   0.3134187   0.2107348), wk =   0.0011195
        k(  482) = (   0.0285714   0.3134187   0.2282961), wk =   0.0011195
        k(  483) = (   0.0285714   0.3134187   0.2458573), wk =   0.0011195
        k(  484) = (   0.0285714   0.3134187   0.2634185), wk =   0.0011195
        k(  485) = (   0.0285714   0.3134187   0.2809798), wk =   0.0011195
        k(  486) = (   0.0285714   0.3134187   0.2985410), wk =   0.0011195
        k(  487) = (   0.0285714   0.3464102   0.0000000), wk =   0.0005598
        k(  488) = (   0.0285714   0.3464102   0.0175612), wk =   0.0011195
        k(  489) = (   0.0285714   0.3464102   0.0351225), wk =   0.0011195
        k(  490) = (   0.0285714   0.3464102   0.0526837), wk =   0.0011195
        k(  491) = (   0.0285714   0.3464102   0.0702449), wk =   0.0011195
        k(  492) = (   0.0285714   0.3464102   0.0878062), wk =   0.0011195
        k(  493) = (   0.0285714   0.3464102   0.1053674), wk =   0.0011195
        k(  494) = (   0.0285714   0.3464102   0.1229287), wk =   0.0011195
        k(  495) = (   0.0285714   0.3464102   0.1404899), wk =   0.0011195
        k(  496) = (   0.0285714   0.3464102   0.1580511), wk =   0.0011195
        k(  497) = (   0.0285714   0.3464102   0.1756124), wk =   0.0011195
        k(  498) = (   0.0285714   0.3464102   0.1931736), wk =   0.0011195
        k(  499) = (   0.0285714   0.3464102   0.2107348), wk =   0.0011195
        k(  500) = (   0.0285714   0.3464102   0.2282961), wk =   0.0011195
        k(  501) = (   0.0285714   0.3464102   0.2458573), wk =   0.0011195
        k(  502) = (   0.0285714   0.3464102   0.2634185), wk =   0.0011195
        k(  503) = (   0.0285714   0.3464102   0.2809798), wk =   0.0011195
        k(  504) = (   0.0285714   0.3464102   0.2985410), wk =   0.0011195
        k(  505) = (   0.0285714   0.3794016   0.0000000), wk =   0.0005598
        k(  506) = (   0.0285714   0.3794016   0.0175612), wk =   0.0011195
        k(  507) = (   0.0285714   0.3794016   0.0351225), wk =   0.0011195
        k(  508) = (   0.0285714   0.3794016   0.0526837), wk =   0.0011195
        k(  509) = (   0.0285714   0.3794016   0.0702449), wk =   0.0011195
        k(  510) = (   0.0285714   0.3794016   0.0878062), wk =   0.0011195
        k(  511) = (   0.0285714   0.3794016   0.1053674), wk =   0.0011195
        k(  512) = (   0.0285714   0.3794016   0.1229287), wk =   0.0011195
        k(  513) = (   0.0285714   0.3794016   0.1404899), wk =   0.0011195
        k(  514) = (   0.0285714   0.3794016   0.1580511), wk =   0.0011195
        k(  515) = (   0.0285714   0.3794016   0.1756124), wk =   0.0011195
        k(  516) = (   0.0285714   0.3794016   0.1931736), wk =   0.0011195
        k(  517) = (   0.0285714   0.3794016   0.2107348), wk =   0.0011195
        k(  518) = (   0.0285714   0.3794016   0.2282961), wk =   0.0011195
        k(  519) = (   0.0285714   0.3794016   0.2458573), wk =   0.0011195
        k(  520) = (   0.0285714   0.3794016   0.2634185), wk =   0.0011195
        k(  521) = (   0.0285714   0.3794016   0.2809798), wk =   0.0011195
        k(  522) = (   0.0285714   0.3794016   0.2985410), wk =   0.0011195
        k(  523) = (   0.0285714   0.4123930   0.0000000), wk =   0.0005598
        k(  524) = (   0.0285714   0.4123930   0.0175612), wk =   0.0011195
        k(  525) = (   0.0285714   0.4123930   0.0351225), wk =   0.0011195
        k(  526) = (   0.0285714   0.4123930   0.0526837), wk =   0.0011195
        k(  527) = (   0.0285714   0.4123930   0.0702449), wk =   0.0011195
        k(  528) = (   0.0285714   0.4123930   0.0878062), wk =   0.0011195
        k(  529) = (   0.0285714   0.4123930   0.1053674), wk =   0.0011195
        k(  530) = (   0.0285714   0.4123930   0.1229287), wk =   0.0011195
        k(  531) = (   0.0285714   0.4123930   0.1404899), wk =   0.0011195
        k(  532) = (   0.0285714   0.4123930   0.1580511), wk =   0.0011195
        k(  533) = (   0.0285714   0.4123930   0.1756124), wk =   0.0011195
        k(  534) = (   0.0285714   0.4123930   0.1931736), wk =   0.0011195
        k(  535) = (   0.0285714   0.4123930   0.2107348), wk =   0.0011195
        k(  536) = (   0.0285714   0.4123930   0.2282961), wk =   0.0011195
        k(  537) = (   0.0285714   0.4123930   0.2458573), wk =   0.0011195
        k(  538) = (   0.0285714   0.4123930   0.2634185), wk =   0.0011195
        k(  539) = (   0.0285714   0.4123930   0.2809798), wk =   0.0011195
        k(  540) = (   0.0285714   0.4123930   0.2985410), wk =   0.0011195
        k(  541) = (   0.0285714   0.4453845   0.0000000), wk =   0.0005598
        k(  542) = (   0.0285714   0.4453845   0.0175612), wk =   0.0011195
        k(  543) = (   0.0285714   0.4453845   0.0351225), wk =   0.0011195
        k(  544) = (   0.0285714   0.4453845   0.0526837), wk =   0.0011195
        k(  545) = (   0.0285714   0.4453845   0.0702449), wk =   0.0011195
        k(  546) = (   0.0285714   0.4453845   0.0878062), wk =   0.0011195
        k(  547) = (   0.0285714   0.4453845   0.1053674), wk =   0.0011195
        k(  548) = (   0.0285714   0.4453845   0.1229287), wk =   0.0011195
        k(  549) = (   0.0285714   0.4453845   0.1404899), wk =   0.0011195
        k(  550) = (   0.0285714   0.4453845   0.1580511), wk =   0.0011195
        k(  551) = (   0.0285714   0.4453845   0.1756124), wk =   0.0011195
        k(  552) = (   0.0285714   0.4453845   0.1931736), wk =   0.0011195
        k(  553) = (   0.0285714   0.4453845   0.2107348), wk =   0.0011195
        k(  554) = (   0.0285714   0.4453845   0.2282961), wk =   0.0011195
        k(  555) = (   0.0285714   0.4453845   0.2458573), wk =   0.0011195
        k(  556) = (   0.0285714   0.4453845   0.2634185), wk =   0.0011195
        k(  557) = (   0.0285714   0.4453845   0.2809798), wk =   0.0011195
        k(  558) = (   0.0285714   0.4453845   0.2985410), wk =   0.0011195
        k(  559) = (   0.0285714   0.4783759   0.0000000), wk =   0.0005598
        k(  560) = (   0.0285714   0.4783759   0.0175612), wk =   0.0011195
        k(  561) = (   0.0285714   0.4783759   0.0351225), wk =   0.0011195
        k(  562) = (   0.0285714   0.4783759   0.0526837), wk =   0.0011195
        k(  563) = (   0.0285714   0.4783759   0.0702449), wk =   0.0011195
        k(  564) = (   0.0285714   0.4783759   0.0878062), wk =   0.0011195
        k(  565) = (   0.0285714   0.4783759   0.1053674), wk =   0.0011195
        k(  566) = (   0.0285714   0.4783759   0.1229287), wk =   0.0011195
        k(  567) = (   0.0285714   0.4783759   0.1404899), wk =   0.0011195
        k(  568) = (   0.0285714   0.4783759   0.1580511), wk =   0.0011195
        k(  569) = (   0.0285714   0.4783759   0.1756124), wk =   0.0011195
        k(  570) = (   0.0285714   0.4783759   0.1931736), wk =   0.0011195
        k(  571) = (   0.0285714   0.4783759   0.2107348), wk =   0.0011195
        k(  572) = (   0.0285714   0.4783759   0.2282961), wk =   0.0011195
        k(  573) = (   0.0285714   0.4783759   0.2458573), wk =   0.0011195
        k(  574) = (   0.0285714   0.4783759   0.2634185), wk =   0.0011195
        k(  575) = (   0.0285714   0.4783759   0.2809798), wk =   0.0011195
        k(  576) = (   0.0285714   0.4783759   0.2985410), wk =   0.0011195
        k(  577) = (   0.0285714   0.5113674   0.0000000), wk =   0.0005598
        k(  578) = (   0.0285714   0.5113674   0.0175612), wk =   0.0011195
        k(  579) = (   0.0285714   0.5113674   0.0351225), wk =   0.0011195
        k(  580) = (   0.0285714   0.5113674   0.0526837), wk =   0.0011195
        k(  581) = (   0.0285714   0.5113674   0.0702449), wk =   0.0011195
        k(  582) = (   0.0285714   0.5113674   0.0878062), wk =   0.0011195
        k(  583) = (   0.0285714   0.5113674   0.1053674), wk =   0.0011195
        k(  584) = (   0.0285714   0.5113674   0.1229287), wk =   0.0011195
        k(  585) = (   0.0285714   0.5113674   0.1404899), wk =   0.0011195
        k(  586) = (   0.0285714   0.5113674   0.1580511), wk =   0.0011195
        k(  587) = (   0.0285714   0.5113674   0.1756124), wk =   0.0011195
        k(  588) = (   0.0285714   0.5113674   0.1931736), wk =   0.0011195
        k(  589) = (   0.0285714   0.5113674   0.2107348), wk =   0.0011195
        k(  590) = (   0.0285714   0.5113674   0.2282961), wk =   0.0011195
        k(  591) = (   0.0285714   0.5113674   0.2458573), wk =   0.0011195
        k(  592) = (   0.0285714   0.5113674   0.2634185), wk =   0.0011195
        k(  593) = (   0.0285714   0.5113674   0.2809798), wk =   0.0011195
        k(  594) = (   0.0285714   0.5113674   0.2985410), wk =   0.0011195
        k(  595) = (   0.0285714   0.5443588   0.0000000), wk =   0.0005598
        k(  596) = (   0.0285714   0.5443588   0.0175612), wk =   0.0011195
        k(  597) = (   0.0285714   0.5443588   0.0351225), wk =   0.0011195
        k(  598) = (   0.0285714   0.5443588   0.0526837), wk =   0.0011195
        k(  599) = (   0.0285714   0.5443588   0.0702449), wk =   0.0011195
        k(  600) = (   0.0285714   0.5443588   0.0878062), wk =   0.0011195
        k(  601) = (   0.0285714   0.5443588   0.1053674), wk =   0.0011195
        k(  602) = (   0.0285714   0.5443588   0.1229287), wk =   0.0011195
        k(  603) = (   0.0285714   0.5443588   0.1404899), wk =   0.0011195
        k(  604) = (   0.0285714   0.5443588   0.1580511), wk =   0.0011195
        k(  605) = (   0.0285714   0.5443588   0.1756124), wk =   0.0011195
        k(  606) = (   0.0285714   0.5443588   0.1931736), wk =   0.0011195
        k(  607) = (   0.0285714   0.5443588   0.2107348), wk =   0.0011195
        k(  608) = (   0.0285714   0.5443588   0.2282961), wk =   0.0011195
        k(  609) = (   0.0285714   0.5443588   0.2458573), wk =   0.0011195
        k(  610) = (   0.0285714   0.5443588   0.2634185), wk =   0.0011195
        k(  611) = (   0.0285714   0.5443588   0.2809798), wk =   0.0011195
        k(  612) = (   0.0285714   0.5443588   0.2985410), wk =   0.0011195
        k(  613) = (   0.0285714   0.5773503   0.0000000), wk =   0.0002799
        k(  614) = (   0.0285714   0.5773503   0.0175612), wk =   0.0005598
        k(  615) = (   0.0285714   0.5773503   0.0351225), wk =   0.0005598
        k(  616) = (   0.0285714   0.5773503   0.0526837), wk =   0.0005598
        k(  617) = (   0.0285714   0.5773503   0.0702449), wk =   0.0005598
        k(  618) = (   0.0285714   0.5773503   0.0878062), wk =   0.0005598
        k(  619) = (   0.0285714   0.5773503   0.1053674), wk =   0.0005598
        k(  620) = (   0.0285714   0.5773503   0.1229287), wk =   0.0005598
        k(  621) = (   0.0285714   0.5773503   0.1404899), wk =   0.0005598
        k(  622) = (   0.0285714   0.5773503   0.1580511), wk =   0.0005598
        k(  623) = (   0.0285714   0.5773503   0.1756124), wk =   0.0005598
        k(  624) = (   0.0285714   0.5773503   0.1931736), wk =   0.0005598
        k(  625) = (   0.0285714   0.5773503   0.2107348), wk =   0.0005598
        k(  626) = (   0.0285714   0.5773503   0.2282961), wk =   0.0005598
        k(  627) = (   0.0285714   0.5773503   0.2458573), wk =   0.0005598
        k(  628) = (   0.0285714   0.5773503   0.2634185), wk =   0.0005598
        k(  629) = (   0.0285714   0.5773503   0.2809798), wk =   0.0005598
        k(  630) = (   0.0285714   0.5773503   0.2985410), wk =   0.0005598
        k(  631) = (   0.0571429   0.0989743   0.0000000), wk =   0.0002799
        k(  632) = (   0.0571429   0.0989743   0.0175612), wk =   0.0005598
        k(  633) = (   0.0571429   0.0989743   0.0351225), wk =   0.0005598
        k(  634) = (   0.0571429   0.0989743   0.0526837), wk =   0.0005598
        k(  635) = (   0.0571429   0.0989743   0.0702449), wk =   0.0005598
        k(  636) = (   0.0571429   0.0989743   0.0878062), wk =   0.0005598
        k(  637) = (   0.0571429   0.0989743   0.1053674), wk =   0.0005598
        k(  638) = (   0.0571429   0.0989743   0.1229287), wk =   0.0005598
        k(  639) = (   0.0571429   0.0989743   0.1404899), wk =   0.0005598
        k(  640) = (   0.0571429   0.0989743   0.1580511), wk =   0.0005598
        k(  641) = (   0.0571429   0.0989743   0.1756124), wk =   0.0005598
        k(  642) = (   0.0571429   0.0989743   0.1931736), wk =   0.0005598
        k(  643) = (   0.0571429   0.0989743   0.2107348), wk =   0.0005598
        k(  644) = (   0.0571429   0.0989743   0.2282961), wk =   0.0005598
        k(  645) = (   0.0571429   0.0989743   0.2458573), wk =   0.0005598
        k(  646) = (   0.0571429   0.0989743   0.2634185), wk =   0.0005598
        k(  647) = (   0.0571429   0.0989743   0.2809798), wk =   0.0005598
        k(  648) = (   0.0571429   0.0989743   0.2985410), wk =   0.0005598
        k(  649) = (   0.0571429   0.1319658   0.0000000), wk =   0.0005598
        k(  650) = (   0.0571429   0.1319658   0.0175612), wk =   0.0011195
        k(  651) = (   0.0571429   0.1319658   0.0351225), wk =   0.0011195
        k(  652) = (   0.0571429   0.1319658   0.0526837), wk =   0.0011195
        k(  653) = (   0.0571429   0.1319658   0.0702449), wk =   0.0011195
        k(  654) = (   0.0571429   0.1319658   0.0878062), wk =   0.0011195
        k(  655) = (   0.0571429   0.1319658   0.1053674), wk =   0.0011195
        k(  656) = (   0.0571429   0.1319658   0.1229287), wk =   0.0011195
        k(  657) = (   0.0571429   0.1319658   0.1404899), wk =   0.0011195
        k(  658) = (   0.0571429   0.1319658   0.1580511), wk =   0.0011195
        k(  659) = (   0.0571429   0.1319658   0.1756124), wk =   0.0011195
        k(  660) = (   0.0571429   0.1319658   0.1931736), wk =   0.0011195
        k(  661) = (   0.0571429   0.1319658   0.2107348), wk =   0.0011195
        k(  662) = (   0.0571429   0.1319658   0.2282961), wk =   0.0011195
        k(  663) = (   0.0571429   0.1319658   0.2458573), wk =   0.0011195
        k(  664) = (   0.0571429   0.1319658   0.2634185), wk =   0.0011195
        k(  665) = (   0.0571429   0.1319658   0.2809798), wk =   0.0011195
        k(  666) = (   0.0571429   0.1319658   0.2985410), wk =   0.0011195
        k(  667) = (   0.0571429   0.1649572   0.0000000), wk =   0.0005598
        k(  668) = (   0.0571429   0.1649572   0.0175612), wk =   0.0011195
        k(  669) = (   0.0571429   0.1649572   0.0351225), wk =   0.0011195
        k(  670) = (   0.0571429   0.1649572   0.0526837), wk =   0.0011195
        k(  671) = (   0.0571429   0.1649572   0.0702449), wk =   0.0011195
        k(  672) = (   0.0571429   0.1649572   0.0878062), wk =   0.0011195
        k(  673) = (   0.0571429   0.1649572   0.1053674), wk =   0.0011195
        k(  674) = (   0.0571429   0.1649572   0.1229287), wk =   0.0011195
        k(  675) = (   0.0571429   0.1649572   0.1404899), wk =   0.0011195
        k(  676) = (   0.0571429   0.1649572   0.1580511), wk =   0.0011195
        k(  677) = (   0.0571429   0.1649572   0.1756124), wk =   0.0011195
        k(  678) = (   0.0571429   0.1649572   0.1931736), wk =   0.0011195
        k(  679) = (   0.0571429   0.1649572   0.2107348), wk =   0.0011195
        k(  680) = (   0.0571429   0.1649572   0.2282961), wk =   0.0011195
        k(  681) = (   0.0571429   0.1649572   0.2458573), wk =   0.0011195
        k(  682) = (   0.0571429   0.1649572   0.2634185), wk =   0.0011195
        k(  683) = (   0.0571429   0.1649572   0.2809798), wk =   0.0011195
        k(  684) = (   0.0571429   0.1649572   0.2985410), wk =   0.0011195
        k(  685) = (   0.0571429   0.1979487   0.0000000), wk =   0.0005598
        k(  686) = (   0.0571429   0.1979487   0.0175612), wk =   0.0011195
        k(  687) = (   0.0571429   0.1979487   0.0351225), wk =   0.0011195
        k(  688) = (   0.0571429   0.1979487   0.0526837), wk =   0.0011195
        k(  689) = (   0.0571429   0.1979487   0.0702449), wk =   0.0011195
        k(  690) = (   0.0571429   0.1979487   0.0878062), wk =   0.0011195
        k(  691) = (   0.0571429   0.1979487   0.1053674), wk =   0.0011195
        k(  692) = (   0.0571429   0.1979487   0.1229287), wk =   0.0011195
        k(  693) = (   0.0571429   0.1979487   0.1404899), wk =   0.0011195
        k(  694) = (   0.0571429   0.1979487   0.1580511), wk =   0.0011195
        k(  695) = (   0.0571429   0.1979487   0.1756124), wk =   0.0011195
        k(  696) = (   0.0571429   0.1979487   0.1931736), wk =   0.0011195
        k(  697) = (   0.0571429   0.1979487   0.2107348), wk =   0.0011195
        k(  698) = (   0.0571429   0.1979487   0.2282961), wk =   0.0011195
        k(  699) = (   0.0571429   0.1979487   0.2458573), wk =   0.0011195
        k(  700) = (   0.0571429   0.1979487   0.2634185), wk =   0.0011195
        k(  701) = (   0.0571429   0.1979487   0.2809798), wk =   0.0011195
        k(  702) = (   0.0571429   0.1979487   0.2985410), wk =   0.0011195
        k(  703) = (   0.0571429   0.2309401   0.0000000), wk =   0.0005598
        k(  704) = (   0.0571429   0.2309401   0.0175612), wk =   0.0011195
        k(  705) = (   0.0571429   0.2309401   0.0351225), wk =   0.0011195
        k(  706) = (   0.0571429   0.2309401   0.0526837), wk =   0.0011195
        k(  707) = (   0.0571429   0.2309401   0.0702449), wk =   0.0011195
        k(  708) = (   0.0571429   0.2309401   0.0878062), wk =   0.0011195
        k(  709) = (   0.0571429   0.2309401   0.1053674), wk =   0.0011195
        k(  710) = (   0.0571429   0.2309401   0.1229287), wk =   0.0011195
        k(  711) = (   0.0571429   0.2309401   0.1404899), wk =   0.0011195
        k(  712) = (   0.0571429   0.2309401   0.1580511), wk =   0.0011195
        k(  713) = (   0.0571429   0.2309401   0.1756124), wk =   0.0011195
        k(  714) = (   0.0571429   0.2309401   0.1931736), wk =   0.0011195
        k(  715) = (   0.0571429   0.2309401   0.2107348), wk =   0.0011195
        k(  716) = (   0.0571429   0.2309401   0.2282961), wk =   0.0011195
        k(  717) = (   0.0571429   0.2309401   0.2458573), wk =   0.0011195
        k(  718) = (   0.0571429   0.2309401   0.2634185), wk =   0.0011195
        k(  719) = (   0.0571429   0.2309401   0.2809798), wk =   0.0011195
        k(  720) = (   0.0571429   0.2309401   0.2985410), wk =   0.0011195
        k(  721) = (   0.0571429   0.2639316   0.0000000), wk =   0.0005598
        k(  722) = (   0.0571429   0.2639316   0.0175612), wk =   0.0011195
        k(  723) = (   0.0571429   0.2639316   0.0351225), wk =   0.0011195
        k(  724) = (   0.0571429   0.2639316   0.0526837), wk =   0.0011195
        k(  725) = (   0.0571429   0.2639316   0.0702449), wk =   0.0011195
        k(  726) = (   0.0571429   0.2639316   0.0878062), wk =   0.0011195
        k(  727) = (   0.0571429   0.2639316   0.1053674), wk =   0.0011195
        k(  728) = (   0.0571429   0.2639316   0.1229287), wk =   0.0011195
        k(  729) = (   0.0571429   0.2639316   0.1404899), wk =   0.0011195
        k(  730) = (   0.0571429   0.2639316   0.1580511), wk =   0.0011195
        k(  731) = (   0.0571429   0.2639316   0.1756124), wk =   0.0011195
        k(  732) = (   0.0571429   0.2639316   0.1931736), wk =   0.0011195
        k(  733) = (   0.0571429   0.2639316   0.2107348), wk =   0.0011195
        k(  734) = (   0.0571429   0.2639316   0.2282961), wk =   0.0011195
        k(  735) = (   0.0571429   0.2639316   0.2458573), wk =   0.0011195
        k(  736) = (   0.0571429   0.2639316   0.2634185), wk =   0.0011195
        k(  737) = (   0.0571429   0.2639316   0.2809798), wk =   0.0011195
        k(  738) = (   0.0571429   0.2639316   0.2985410), wk =   0.0011195
        k(  739) = (   0.0571429   0.2969230   0.0000000), wk =   0.0005598
        k(  740) = (   0.0571429   0.2969230   0.0175612), wk =   0.0011195
        k(  741) = (   0.0571429   0.2969230   0.0351225), wk =   0.0011195
        k(  742) = (   0.0571429   0.2969230   0.0526837), wk =   0.0011195
        k(  743) = (   0.0571429   0.2969230   0.0702449), wk =   0.0011195
        k(  744) = (   0.0571429   0.2969230   0.0878062), wk =   0.0011195
        k(  745) = (   0.0571429   0.2969230   0.1053674), wk =   0.0011195
        k(  746) = (   0.0571429   0.2969230   0.1229287), wk =   0.0011195
        k(  747) = (   0.0571429   0.2969230   0.1404899), wk =   0.0011195
        k(  748) = (   0.0571429   0.2969230   0.1580511), wk =   0.0011195
        k(  749) = (   0.0571429   0.2969230   0.1756124), wk =   0.0011195
        k(  750) = (   0.0571429   0.2969230   0.1931736), wk =   0.0011195
        k(  751) = (   0.0571429   0.2969230   0.2107348), wk =   0.0011195
        k(  752) = (   0.0571429   0.2969230   0.2282961), wk =   0.0011195
        k(  753) = (   0.0571429   0.2969230   0.2458573), wk =   0.0011195
        k(  754) = (   0.0571429   0.2969230   0.2634185), wk =   0.0011195
        k(  755) = (   0.0571429   0.2969230   0.2809798), wk =   0.0011195
        k(  756) = (   0.0571429   0.2969230   0.2985410), wk =   0.0011195
        k(  757) = (   0.0571429   0.3299144   0.0000000), wk =   0.0005598
        k(  758) = (   0.0571429   0.3299144   0.0175612), wk =   0.0011195
        k(  759) = (   0.0571429   0.3299144   0.0351225), wk =   0.0011195
        k(  760) = (   0.0571429   0.3299144   0.0526837), wk =   0.0011195
        k(  761) = (   0.0571429   0.3299144   0.0702449), wk =   0.0011195
        k(  762) = (   0.0571429   0.3299144   0.0878062), wk =   0.0011195
        k(  763) = (   0.0571429   0.3299144   0.1053674), wk =   0.0011195
        k(  764) = (   0.0571429   0.3299144   0.1229287), wk =   0.0011195
        k(  765) = (   0.0571429   0.3299144   0.1404899), wk =   0.0011195
        k(  766) = (   0.0571429   0.3299144   0.1580511), wk =   0.0011195
        k(  767) = (   0.0571429   0.3299144   0.1756124), wk =   0.0011195
        k(  768) = (   0.0571429   0.3299144   0.1931736), wk =   0.0011195
        k(  769) = (   0.0571429   0.3299144   0.2107348), wk =   0.0011195
        k(  770) = (   0.0571429   0.3299144   0.2282961), wk =   0.0011195
        k(  771) = (   0.0571429   0.3299144   0.2458573), wk =   0.0011195
        k(  772) = (   0.0571429   0.3299144   0.2634185), wk =   0.0011195
        k(  773) = (   0.0571429   0.3299144   0.2809798), wk =   0.0011195
        k(  774) = (   0.0571429   0.3299144   0.2985410), wk =   0.0011195
        k(  775) = (   0.0571429   0.3629059   0.0000000), wk =   0.0005598
        k(  776) = (   0.0571429   0.3629059   0.0175612), wk =   0.0011195
        k(  777) = (   0.0571429   0.3629059   0.0351225), wk =   0.0011195
        k(  778) = (   0.0571429   0.3629059   0.0526837), wk =   0.0011195
        k(  779) = (   0.0571429   0.3629059   0.0702449), wk =   0.0011195
        k(  780) = (   0.0571429   0.3629059   0.0878062), wk =   0.0011195
        k(  781) = (   0.0571429   0.3629059   0.1053674), wk =   0.0011195
        k(  782) = (   0.0571429   0.3629059   0.1229287), wk =   0.0011195
        k(  783) = (   0.0571429   0.3629059   0.1404899), wk =   0.0011195
        k(  784) = (   0.0571429   0.3629059   0.1580511), wk =   0.0011195
        k(  785) = (   0.0571429   0.3629059   0.1756124), wk =   0.0011195
        k(  786) = (   0.0571429   0.3629059   0.1931736), wk =   0.0011195
        k(  787) = (   0.0571429   0.3629059   0.2107348), wk =   0.0011195
        k(  788) = (   0.0571429   0.3629059   0.2282961), wk =   0.0011195
        k(  789) = (   0.0571429   0.3629059   0.2458573), wk =   0.0011195
        k(  790) = (   0.0571429   0.3629059   0.2634185), wk =   0.0011195
        k(  791) = (   0.0571429   0.3629059   0.2809798), wk =   0.0011195
        k(  792) = (   0.0571429   0.3629059   0.2985410), wk =   0.0011195
        k(  793) = (   0.0571429   0.3958973   0.0000000), wk =   0.0005598
        k(  794) = (   0.0571429   0.3958973   0.0175612), wk =   0.0011195
        k(  795) = (   0.0571429   0.3958973   0.0351225), wk =   0.0011195
        k(  796) = (   0.0571429   0.3958973   0.0526837), wk =   0.0011195
        k(  797) = (   0.0571429   0.3958973   0.0702449), wk =   0.0011195
        k(  798) = (   0.0571429   0.3958973   0.0878062), wk =   0.0011195
        k(  799) = (   0.0571429   0.3958973   0.1053674), wk =   0.0011195
        k(  800) = (   0.0571429   0.3958973   0.1229287), wk =   0.0011195
        k(  801) = (   0.0571429   0.3958973   0.1404899), wk =   0.0011195
        k(  802) = (   0.0571429   0.3958973   0.1580511), wk =   0.0011195
        k(  803) = (   0.0571429   0.3958973   0.1756124), wk =   0.0011195
        k(  804) = (   0.0571429   0.3958973   0.1931736), wk =   0.0011195
        k(  805) = (   0.0571429   0.3958973   0.2107348), wk =   0.0011195
        k(  806) = (   0.0571429   0.3958973   0.2282961), wk =   0.0011195
        k(  807) = (   0.0571429   0.3958973   0.2458573), wk =   0.0011195
        k(  808) = (   0.0571429   0.3958973   0.2634185), wk =   0.0011195
        k(  809) = (   0.0571429   0.3958973   0.2809798), wk =   0.0011195
        k(  810) = (   0.0571429   0.3958973   0.2985410), wk =   0.0011195
        k(  811) = (   0.0571429   0.4288888   0.0000000), wk =   0.0005598
        k(  812) = (   0.0571429   0.4288888   0.0175612), wk =   0.0011195
        k(  813) = (   0.0571429   0.4288888   0.0351225), wk =   0.0011195
        k(  814) = (   0.0571429   0.4288888   0.0526837), wk =   0.0011195
        k(  815) = (   0.0571429   0.4288888   0.0702449), wk =   0.0011195
        k(  816) = (   0.0571429   0.4288888   0.0878062), wk =   0.0011195
        k(  817) = (   0.0571429   0.4288888   0.1053674), wk =   0.0011195
        k(  818) = (   0.0571429   0.4288888   0.1229287), wk =   0.0011195
        k(  819) = (   0.0571429   0.4288888   0.1404899), wk =   0.0011195
        k(  820) = (   0.0571429   0.4288888   0.1580511), wk =   0.0011195
        k(  821) = (   0.0571429   0.4288888   0.1756124), wk =   0.0011195
        k(  822) = (   0.0571429   0.4288888   0.1931736), wk =   0.0011195
        k(  823) = (   0.0571429   0.4288888   0.2107348), wk =   0.0011195
        k(  824) = (   0.0571429   0.4288888   0.2282961), wk =   0.0011195
        k(  825) = (   0.0571429   0.4288888   0.2458573), wk =   0.0011195
        k(  826) = (   0.0571429   0.4288888   0.2634185), wk =   0.0011195
        k(  827) = (   0.0571429   0.4288888   0.2809798), wk =   0.0011195
        k(  828) = (   0.0571429   0.4288888   0.2985410), wk =   0.0011195
        k(  829) = (   0.0571429   0.4618802   0.0000000), wk =   0.0005598
        k(  830) = (   0.0571429   0.4618802   0.0175612), wk =   0.0011195
        k(  831) = (   0.0571429   0.4618802   0.0351225), wk =   0.0011195
        k(  832) = (   0.0571429   0.4618802   0.0526837), wk =   0.0011195
        k(  833) = (   0.0571429   0.4618802   0.0702449), wk =   0.0011195
        k(  834) = (   0.0571429   0.4618802   0.0878062), wk =   0.0011195
        k(  835) = (   0.0571429   0.4618802   0.1053674), wk =   0.0011195
        k(  836) = (   0.0571429   0.4618802   0.1229287), wk =   0.0011195
        k(  837) = (   0.0571429   0.4618802   0.1404899), wk =   0.0011195
        k(  838) = (   0.0571429   0.4618802   0.1580511), wk =   0.0011195
        k(  839) = (   0.0571429   0.4618802   0.1756124), wk =   0.0011195
        k(  840) = (   0.0571429   0.4618802   0.1931736), wk =   0.0011195
        k(  841) = (   0.0571429   0.4618802   0.2107348), wk =   0.0011195
        k(  842) = (   0.0571429   0.4618802   0.2282961), wk =   0.0011195
        k(  843) = (   0.0571429   0.4618802   0.2458573), wk =   0.0011195
        k(  844) = (   0.0571429   0.4618802   0.2634185), wk =   0.0011195
        k(  845) = (   0.0571429   0.4618802   0.2809798), wk =   0.0011195
        k(  846) = (   0.0571429   0.4618802   0.2985410), wk =   0.0011195
        k(  847) = (   0.0571429   0.4948717   0.0000000), wk =   0.0005598
        k(  848) = (   0.0571429   0.4948717   0.0175612), wk =   0.0011195
        k(  849) = (   0.0571429   0.4948717   0.0351225), wk =   0.0011195
        k(  850) = (   0.0571429   0.4948717   0.0526837), wk =   0.0011195
        k(  851) = (   0.0571429   0.4948717   0.0702449), wk =   0.0011195
        k(  852) = (   0.0571429   0.4948717   0.0878062), wk =   0.0011195
        k(  853) = (   0.0571429   0.4948717   0.1053674), wk =   0.0011195
        k(  854) = (   0.0571429   0.4948717   0.1229287), wk =   0.0011195
        k(  855) = (   0.0571429   0.4948717   0.1404899), wk =   0.0011195
        k(  856) = (   0.0571429   0.4948717   0.1580511), wk =   0.0011195
        k(  857) = (   0.0571429   0.4948717   0.1756124), wk =   0.0011195
        k(  858) = (   0.0571429   0.4948717   0.1931736), wk =   0.0011195
        k(  859) = (   0.0571429   0.4948717   0.2107348), wk =   0.0011195
        k(  860) = (   0.0571429   0.4948717   0.2282961), wk =   0.0011195
        k(  861) = (   0.0571429   0.4948717   0.2458573), wk =   0.0011195
        k(  862) = (   0.0571429   0.4948717   0.2634185), wk =   0.0011195
        k(  863) = (   0.0571429   0.4948717   0.2809798), wk =   0.0011195
        k(  864) = (   0.0571429   0.4948717   0.2985410), wk =   0.0011195
        k(  865) = (   0.0571429   0.5278631   0.0000000), wk =   0.0005598
        k(  866) = (   0.0571429   0.5278631   0.0175612), wk =   0.0011195
        k(  867) = (   0.0571429   0.5278631   0.0351225), wk =   0.0011195
        k(  868) = (   0.0571429   0.5278631   0.0526837), wk =   0.0011195
        k(  869) = (   0.0571429   0.5278631   0.0702449), wk =   0.0011195
        k(  870) = (   0.0571429   0.5278631   0.0878062), wk =   0.0011195
        k(  871) = (   0.0571429   0.5278631   0.1053674), wk =   0.0011195
        k(  872) = (   0.0571429   0.5278631   0.1229287), wk =   0.0011195
        k(  873) = (   0.0571429   0.5278631   0.1404899), wk =   0.0011195
        k(  874) = (   0.0571429   0.5278631   0.1580511), wk =   0.0011195
        k(  875) = (   0.0571429   0.5278631   0.1756124), wk =   0.0011195
        k(  876) = (   0.0571429   0.5278631   0.1931736), wk =   0.0011195
        k(  877) = (   0.0571429   0.5278631   0.2107348), wk =   0.0011195
        k(  878) = (   0.0571429   0.5278631   0.2282961), wk =   0.0011195
        k(  879) = (   0.0571429   0.5278631   0.2458573), wk =   0.0011195
        k(  880) = (   0.0571429   0.5278631   0.2634185), wk =   0.0011195
        k(  881) = (   0.0571429   0.5278631   0.2809798), wk =   0.0011195
        k(  882) = (   0.0571429   0.5278631   0.2985410), wk =   0.0011195
        k(  883) = (   0.0571429   0.5608545   0.0000000), wk =   0.0005598
        k(  884) = (   0.0571429   0.5608545   0.0175612), wk =   0.0011195
        k(  885) = (   0.0571429   0.5608545   0.0351225), wk =   0.0011195
        k(  886) = (   0.0571429   0.5608545   0.0526837), wk =   0.0011195
        k(  887) = (   0.0571429   0.5608545   0.0702449), wk =   0.0011195
        k(  888) = (   0.0571429   0.5608545   0.0878062), wk =   0.0011195
        k(  889) = (   0.0571429   0.5608545   0.1053674), wk =   0.0011195
        k(  890) = (   0.0571429   0.5608545   0.1229287), wk =   0.0011195
        k(  891) = (   0.0571429   0.5608545   0.1404899), wk =   0.0011195
        k(  892) = (   0.0571429   0.5608545   0.1580511), wk =   0.0011195
        k(  893) = (   0.0571429   0.5608545   0.1756124), wk =   0.0011195
        k(  894) = (   0.0571429   0.5608545   0.1931736), wk =   0.0011195
        k(  895) = (   0.0571429   0.5608545   0.2107348), wk =   0.0011195
        k(  896) = (   0.0571429   0.5608545   0.2282961), wk =   0.0011195
        k(  897) = (   0.0571429   0.5608545   0.2458573), wk =   0.0011195
[...]
     1.0000   1.0000   1.0000   1.0000   1.0000   1.0000   1.0000   1.0000
     1.0000   1.0000   1.0000   1.0000   1.0000   1.0000   1.0000   1.0000
     1.0000   1.0000

          k = 0.2857 0.5609 0.2810 ( 14743 PWs)   bands (ev):

    -4.3113  -4.3067  -2.8250  -2.8185  -2.8113  -2.7807  -2.6751  -2.6740
    -2.6399  -2.6377  -0.8923  -0.8595   4.4503   4.4963   6.3983   6.7178
     9.0779   9.1669

     occupation numbers 
     1.0000   1.0000   1.0000   1.0000   1.0000   1.0000   1.0000   1.0000
     1.0000   1.0000   1.0000   1.0000   1.0000   1.0000   1.0000   1.0000
     1.0000   1.0000

          k = 0.2857 0.5609 0.2985 ( 14744 PWs)   bands (ev):

    -4.3090  -4.3075  -2.8223  -2.8205  -2.8025  -2.7917  -2.6750  -2.6746
    -2.6387  -2.6380  -0.8813  -0.8703   4.4563   4.4716   6.5018   6.6085
     9.1297   9.1596

     occupation numbers 
     1.0000   1.0000   1.0000   1.0000   1.0000   1.0000   1.0000   1.0000
     1.0000   1.0000   1.0000   1.0000   1.0000   1.0000   1.0000   1.0000
     1.0000   1.0000

          k = 0.3143 0.5444 0.0000 ( 14754 PWs)   bands (ev):

    -4.3659  -4.3388  -2.9332  -2.7454  -2.7246  -2.7193  -2.7064  -2.6985
    -2.6568  -2.6132  -0.9781  -0.7708   5.1805   5.2360   5.5971   7.4294
     7.8869   7.9608

     occupation numbers 
     1.0000   1.0000   1.0000   1.0000   1.0000   1.0000   1.0000   1.0000
     1.0000   1.0000   1.0000   1.0000   1.0000   1.0000   1.0000   1.0000
     1.0000   1.0000

          k = 0.3143 0.5444 0.0176 ( 14744 PWs)   bands (ev):

    -4.3655  -4.3385  -2.9327  -2.7469  -2.7265  -2.7192  -2.7051  -2.6968
    -2.6568  -2.6137  -0.9777  -0.7711   5.1708   5.2332   5.5939   7.4446
     7.9005   7.9536

     occupation numbers 
     1.0000   1.0000   1.0000   1.0000   1.0000   1.0000   1.0000   1.0000
     1.0000   1.0000   1.0000   1.0000   1.0000   1.0000   1.0000   1.0000
     1.0000   1.0000

          k = 0.3143 0.5444 0.0351 ( 14743 PWs)   bands (ev):

    -4.3643  -4.3377  -2.9312  -2.7509  -2.7314  -2.7192  -2.7018  -2.6930
    -2.6566  -2.6154  -0.9763  -0.7721   5.1429   5.2236   5.5863   7.4892
     7.9322   7.9404

     occupation numbers 
     1.0000   1.0000   1.0000   1.0000   1.0000   1.0000   1.0000   1.0000
     1.0000   1.0000   1.0000   1.0000   1.0000   1.0000   1.0000   1.0000
     1.0000   1.0000

          k = 0.3143 0.5444 0.0527 ( 14740 PWs)   bands (ev):

    -4.3623  -4.3362  -2.9285  -2.7563  -2.7378  -2.7193  -2.6971  -2.6884
    -2.6564  -2.6180  -0.9741  -0.7737   5.0994   5.2042   5.5797   7.5599
     7.8974   8.0039

     occupation numbers 
     1.0000   1.0000   1.0000   1.0000   1.0000   1.0000   1.0000   1.0000
     1.0000   1.0000   1.0000   1.0000   1.0000   1.0000   1.0000   1.0000
     1.0000   1.0000

          k = 0.3143 0.5444 0.0702 ( 14752 PWs)   bands (ev):

    -4.3595  -4.3343  -2.9249  -2.7625  -2.7449  -2.7197  -2.6919  -2.6840
    -2.6559  -2.6217  -0.9711  -0.7760   5.0441   5.1720   5.5802   7.6513
     7.8513   8.0872

     occupation numbers 
     1.0000   1.0000   1.0000   1.0000   1.0000   1.0000   1.0000   1.0000
     1.0000   1.0000   1.0000   1.0000   1.0000   1.0000   1.0000   1.0000
     1.0000   1.0000

          k = 0.3143 0.5444 0.0878 ( 14754 PWs)   bands (ev):

    -4.3562  -4.3319  -2.9203  -2.7690  -2.7522  -2.7203  -2.6865  -2.6800
    -2.6551  -2.6262  -0.9672  -0.7790   4.9808   5.1262   5.5923   7.7402
     7.8132   8.1859

     occupation numbers 
     1.0000   1.0000   1.0000   1.0000   1.0000   1.0000   1.0000   1.0000
     1.0000   1.0000   1.0000   1.0000   1.0000   1.0000   1.0000   1.0000
     1.0000   1.0000

          k = 0.3143 0.5444 0.1054 ( 14764 PWs)   bands (ev):

    -4.3523  -4.3292  -2.9147  -2.7756  -2.7597  -2.7212  -2.6812  -2.6768
    -2.6539  -2.6313  -0.9624  -0.7826   4.9133   5.0688   5.6172   7.7045
     7.9023   8.2956

     occupation numbers 
     1.0000   1.0000   1.0000   1.0000   1.0000   1.0000   1.0000   1.0000
     1.0000   1.0000   1.0000   1.0000   1.0000   1.0000   1.0000   1.0000
     1.0000   1.0000

          k = 0.3143 0.5444 0.1229 ( 14756 PWs)   bands (ev):

    -4.3479  -4.3262  -2.9082  -2.7822  -2.7672  -2.7226  -2.6761  -2.6745
    -2.6523  -2.6369  -0.9569  -0.7869   4.8447   5.0035   5.6540   7.6263
     8.0335   8.4121

     occupation numbers 
     1.0000   1.0000   1.0000   1.0000   1.0000   1.0000   1.0000   1.0000
     1.0000   1.0000   1.0000   1.0000   1.0000   1.0000   1.0000   1.0000
     1.0000   1.0000

          k = 0.3143 0.5444 0.1405 ( 14742 PWs)   bands (ev):

    -4.3432  -4.3231  -2.9008  -2.7885  -2.7745  -2.7246  -2.6731  -2.6714
    -2.6503  -2.6425  -0.9507  -0.7918   4.7777   4.9341   5.7015   7.5372
     8.1725   8.5312

     occupation numbers 
     1.0000   1.0000   1.0000   1.0000   1.0000   1.0000   1.0000   1.0000
     1.0000   1.0000   1.0000   1.0000   1.0000   1.0000   1.0000   1.0000
     1.0000   1.0000

          k = 0.3143 0.5444 0.1581 ( 14736 PWs)   bands (ev):

    -4.3384  -4.3199  -2.8926  -2.7944  -2.7815  -2.7275  -2.6723  -2.6676
    -2.6481  -2.6477  -0.9438  -0.7974   4.7142   4.8639   5.7583   7.4406
     8.3140   8.6492

     occupation numbers 
     1.0000   1.0000   1.0000   1.0000   1.0000   1.0000   1.0000   1.0000
     1.0000   1.0000   1.0000   1.0000   1.0000   1.0000   1.0000   1.0000
     1.0000   1.0000

          k = 0.3143 0.5444 0.1756 ( 14745 PWs)   bands (ev):

    -4.3334  -4.3168  -2.8836  -2.7999  -2.7881  -2.7314  -2.6721  -2.6653
    -2.6513  -2.6458  -0.9362  -0.8037   4.6561   4.7954   5.8233   7.3382
     8.4542   8.7625

     occupation numbers 
     1.0000   1.0000   1.0000   1.0000   1.0000   1.0000   1.0000   1.0000
     1.0000   1.0000   1.0000   1.0000   1.0000   1.0000   1.0000   1.0000
     1.0000   1.0000

          k = 0.3143 0.5444 0.1932 ( 14739 PWs)   bands (ev):

    -4.3286  -4.3139  -2.8739  -2.8048  -2.7943  -2.7367  -2.6722  -2.6658
    -2.6518  -2.6438  -0.9281  -0.8106   4.6045   4.7305   5.8959   7.2313
     8.5897   8.8675

     occupation numbers 
     1.0000   1.0000   1.0000   1.0000   1.0000   1.0000   1.0000   1.0000
     1.0000   1.0000   1.0000   1.0000   1.0000   1.0000   1.0000   1.0000
     1.0000   1.0000

          k = 0.3143 0.5444 0.2107 ( 14731 PWs)   bands (ev):

    -4.3239  -4.3114  -2.8637  -2.8091  -2.7999  -2.7433  -2.6726  -2.6681
    -2.6501  -2.6421  -0.9195  -0.8181   4.5604   4.6708   5.9752   7.1212
     8.7173   8.9610

     occupation numbers 
     1.0000   1.0000   1.0000   1.0000   1.0000   1.0000   1.0000   1.0000
     1.0000   1.0000   1.0000   1.0000   1.0000   1.0000   1.0000   1.0000
     1.0000   1.0000

          k = 0.3143 0.5444 0.2283 ( 14734 PWs)   bands (ev):

    -4.3196  -4.3092  -2.8529  -2.8127  -2.8047  -2.7513  -2.6730  -2.6705
    -2.6477  -2.6407  -0.9104  -0.8261   4.5247   4.6176   6.0608   7.0092
     8.8341   9.0398

     occupation numbers 
     1.0000   1.0000   1.0000   1.0000   1.0000   1.0000   1.0000   1.0000
     1.0000   1.0000   1.0000   1.0000   1.0000   1.0000   1.0000   1.0000
     1.0000   1.0000

          k = 0.3143 0.5444 0.2459 ( 14743 PWs)   bands (ev):

    -4.3158  -4.3076  -2.8418  -2.8155  -2.8087  -2.7605  -2.6736  -2.6724
    -2.6453  -2.6397  -0.9011  -0.8346   4.4978   4.5716   6.1519   6.8962
     8.9370   9.1013

     occupation numbers 
     1.0000   1.0000   1.0000   1.0000   1.0000   1.0000   1.0000   1.0000
     1.0000   1.0000   1.0000   1.0000   1.0000   1.0000   1.0000   1.0000
     1.0000   1.0000

          k = 0.3143 0.5444 0.2634 ( 14743 PWs)   bands (ev):

    -4.3125  -4.3067  -2.8308  -2.8175  -2.8115  -2.7707  -2.6740  -2.6737
    -2.6433  -2.6392  -0.8915  -0.8435   4.4802   4.5337   6.2481   6.7832
     9.0233   9.1432

     occupation numbers 
     1.0000   1.0000   1.0000   1.0000   1.0000   1.0000   1.0000   1.0000
     1.0000   1.0000   1.0000   1.0000   1.0000   1.0000   1.0000   1.0000
     1.0000   1.0000

          k = 0.3143 0.5444 0.2810 ( 14745 PWs)   bands (ev):

    -4.3099  -4.3064  -2.8217  -2.8187  -2.8114  -2.7815  -2.6745  -2.6744
    -2.6416  -2.6391  -0.8818  -0.8528   4.4720   4.5044   6.3487   6.6712
     9.0907   9.1637

     occupation numbers 
     1.0000   1.0000   1.0000   1.0000   1.0000   1.0000   1.0000   1.0000
     1.0000   1.0000   1.0000   1.0000   1.0000   1.0000   1.0000   1.0000
     1.0000   1.0000

          k = 0.3143 0.5444 0.2985 ( 14748 PWs)   bands (ev):

    -4.3080  -4.3068  -2.8192  -2.8191  -2.8037  -2.7928  -2.6747  -2.6747
    -2.6403  -2.6394  -0.8720  -0.8623   4.4734   4.4842   6.4533   6.5610
     9.1373   9.1618

     occupation numbers 
     1.0000   1.0000   1.0000   1.0000   1.0000   1.0000   1.0000   1.0000
     1.0000   1.0000   1.0000   1.0000   1.0000   1.0000   1.0000   1.0000
     1.0000   1.0000

          k = 0.3143 0.5774 0.0000 ( 14744 PWs)   bands (ev):

    -4.3577  -4.3444  -2.9341  -2.7396  -2.7260  -2.7182  -2.7050  -2.7004
    -2.6594  -2.6137  -0.9104  -0.8198   5.1936   5.3510   5.4300   7.5557
     7.7642   7.9294

     occupation numbers 
     1.0000   1.0000   1.0000   1.0000   1.0000   1.0000   1.0000   1.0000
     1.0000   1.0000   1.0000   1.0000   1.0000   1.0000   1.0000   1.0000
     1.0000   1.0000

          k = 0.3143 0.5774 0.0176 ( 14744 PWs)   bands (ev):

    -4.3573  -4.3441  -2.9336  -2.7412  -2.7282  -2.7182  -2.7036  -2.6985
    -2.6594  -2.6142  -0.9101  -0.8199   5.1868   5.3411   5.4311   7.5706
     7.7780   7.9223

     occupation numbers 
     1.0000   1.0000   1.0000   1.0000   1.0000   1.0000   1.0000   1.0000
     1.0000   1.0000   1.0000   1.0000   1.0000   1.0000   1.0000   1.0000
     1.0000   1.0000

          k = 0.3143 0.5774 0.0351 ( 14750 PWs)   bands (ev):

    -4.3562  -4.3432  -2.9320  -2.7453  -2.7335  -2.7183  -2.7000  -2.6940
    -2.6595  -2.6159  -0.9094  -0.8201   5.1658   5.3124   5.4357   7.6142
     7.8177   7.9020

     occupation numbers 
     1.0000   1.0000   1.0000   1.0000   1.0000   1.0000   1.0000   1.0000
     1.0000   1.0000   1.0000   1.0000   1.0000   1.0000   1.0000   1.0000
     1.0000   1.0000

          k = 0.3143 0.5774 0.0527 ( 14750 PWs)   bands (ev):

    -4.3543  -4.3416  -2.9294  -2.7510  -2.7401  -2.7185  -2.6952  -2.6886
    -2.6598  -2.6186  -0.9081  -0.8205   5.1300   5.2673   5.4470   7.6837
     7.8535   7.8959

     occupation numbers 
     1.0000   1.0000   1.0000   1.0000   1.0000   1.0000   1.0000   1.0000
     1.0000   1.0000   1.0000   1.0000   1.0000   1.0000   1.0000   1.0000
     1.0000   1.0000

          k = 0.3143 0.5774 0.0702 ( 14766 PWs)   bands (ev):

    -4.3518  -4.3395  -2.9257  -2.7574  -2.7473  -2.7189  -2.6900  -2.6829
    -2.6600  -2.6223  -0.9064  -0.8211   5.0809   5.2092   5.4672   7.7750
     7.8112   7.9753

     occupation numbers 
     1.0000   1.0000   1.0000   1.0000   1.0000   1.0000   1.0000   1.0000
     1.0000   1.0000   1.0000   1.0000   1.0000   1.0000   1.0000   1.0000
     1.0000   1.0000

          k = 0.3143 0.5774 0.0878 ( 14768 PWs)   bands (ev):

    -4.3487  -4.3369  -2.9211  -2.7641  -2.7547  -2.7195  -2.6848  -2.6774
    -2.6603  -2.6269  -0.9042  -0.8219   5.0216   5.1418   5.4966   7.7505
     7.8837   8.0769

     occupation numbers 
     1.0000   1.0000   1.0000   1.0000   1.0000   1.0000   1.0000   1.0000
     1.0000   1.0000   1.0000   1.0000   1.0000   1.0000   1.0000   1.0000
     1.0000   1.0000

          k = 0.3143 0.5774 0.1054 ( 14767 PWs)   bands (ev):

    -4.3451  -4.3339  -2.9155  -2.7709  -2.7622  -2.7205  -2.6799  -2.6721
    -2.6605  -2.6321  -0.9016  -0.8229   4.9560   5.0685   5.5351   7.6782
     8.0051   8.1909

     occupation numbers 
     1.0000   1.0000   1.0000   1.0000   1.0000   1.0000   1.0000   1.0000
     1.0000   1.0000   1.0000   1.0000   1.0000   1.0000   1.0000   1.0000
     1.0000   1.0000

          k = 0.3143 0.5774 0.1229 ( 14758 PWs)   bands (ev):

    -4.3411  -4.3305  -2.9089  -2.7776  -2.7696  -2.7219  -2.6755  -2.6672
    -2.6606  -2.6379  -0.8986  -0.8242   4.8877   4.9927   5.5820   7.5960
     8.1353   8.3125

     occupation numbers 
     1.0000   1.0000   1.0000   1.0000   1.0000   1.0000   1.0000   1.0000
     1.0000   1.0000   1.0000   1.0000   1.0000   1.0000   1.0000   1.0000
     1.0000   1.0000

          k = 0.3143 0.5774 0.1405 ( 14735 PWs)   bands (ev):

    -4.3369  -4.3270  -2.9015  -2.7841  -2.7768  -2.7240  -2.6719  -2.6628
    -2.6601  -2.6438  -0.8952  -0.8257   4.8195   4.9167   5.6368   7.5053
     8.2701   8.4376

     occupation numbers 
     1.0000   1.0000   1.0000   1.0000   1.0000   1.0000   1.0000   1.0000
     1.0000   1.0000   1.0000   1.0000   1.0000   1.0000   1.0000   1.0000
     1.0000   1.0000

          k = 0.3143 0.5774 0.1581 ( 14728 PWs)   bands (ev):

    -4.3325  -4.3234  -2.8932  -2.7903  -2.7837  -2.7269  -2.6697  -2.6591
    -2.6588  -2.6493  -0.8915  -0.8274   4.7540   4.8430   5.6990   7.4076
     8.4060   8.5625

     occupation numbers 
     1.0000   1.0000   1.0000   1.0000   1.0000   1.0000   1.0000   1.0000
     1.0000   1.0000   1.0000   1.0000   1.0000   1.0000   1.0000   1.0000
     1.0000   1.0000

          k = 0.3143 0.5774 0.1756 ( 14749 PWs)   bands (ev):

    -4.3280  -4.3199  -2.8842  -2.7960  -2.7902  -2.7310  -2.6688  -2.6580
    -2.6565  -2.6524  -0.8875  -0.8295   4.6928   4.7731   5.7682   7.3042
     8.5396   8.6836

     occupation numbers 
     1.0000   1.0000   1.0000   1.0000   1.0000   1.0000   1.0000   1.0000
     1.0000   1.0000   1.0000   1.0000   1.0000   1.0000   1.0000   1.0000
     1.0000   1.0000

          k = 0.3143 0.5774 0.1932 ( 14742 PWs)   bands (ev):

    -4.3237  -4.3165  -2.8744  -2.8012  -2.7961  -2.7363  -2.6688  -2.6614
    -2.6538  -2.6507  -0.8833  -0.8318   4.6376   4.7086   5.8440   7.1964
     8.6676   8.7973

     occupation numbers 
     1.0000   1.0000   1.0000   1.0000   1.0000   1.0000   1.0000   1.0000
     1.0000   1.0000   1.0000   1.0000   1.0000   1.0000   1.0000   1.0000
     1.0000   1.0000

          k = 0.3143 0.5774 0.2107 ( 14742 PWs)   bands (ev):

    -4.3196  -4.3134  -2.8640  -2.8058  -2.8015  -2.7431  -2.6692  -2.6651
    -2.6511  -2.6483  -0.8790  -0.8345   4.5894   4.6505   5.9258   7.0855
     8.7867   8.9005

     occupation numbers 
     1.0000   1.0000   1.0000   1.0000   1.0000   1.0000   1.0000   1.0000
     1.0000   1.0000   1.0000   1.0000   1.0000   1.0000   1.0000   1.0000
     1.0000   1.0000

          k = 0.3143 0.5774 0.2283 ( 14747 PWs)   bands (ev):

    -4.3159  -4.3108  -2.8531  -2.8097  -2.8062  -2.7513  -2.6699  -2.6680
    -2.6486  -2.6462  -0.8745  -0.8375   4.5490   4.5998   6.0135   6.9726
     8.8939   8.9901

     occupation numbers 
     1.0000   1.0000   1.0000   1.0000   1.0000   1.0000   1.0000   1.0000
     1.0000   1.0000   1.0000   1.0000   1.0000   1.0000   1.0000   1.0000
     1.0000   1.0000

          k = 0.3143 0.5774 0.2459 ( 14740 PWs)   bands (ev):

    -4.3126  -4.3086  -2.8418  -2.8127  -2.8101  -2.7606  -2.6705  -2.6701
    -2.6466  -2.6446  -0.8699  -0.8407   4.5172   4.5572   6.1064   6.8587
     8.9862   9.0631

     occupation numbers 
     1.0000   1.0000   1.0000   1.0000   1.0000   1.0000   1.0000   1.0000
     1.0000   1.0000   1.0000   1.0000   1.0000   1.0000   1.0000   1.0000
     1.0000   1.0000

          k = 0.3143 0.5774 0.2634 ( 14746 PWs)   bands (ev):

    -4.3100  -4.3071  -2.8303  -2.8148  -2.8132  -2.7710  -2.6714  -2.6712
    -2.6449  -2.6434  -0.8653  -0.8443   4.4945   4.5233   6.2041   6.7448
     9.0611   9.1173

     occupation numbers 
     1.0000   1.0000   1.0000   1.0000   1.0000   1.0000   1.0000   1.0000
     1.0000   1.0000   1.0000   1.0000   1.0000   1.0000   1.0000   1.0000
     1.0000   1.0000

          k = 0.3143 0.5774 0.2810 ( 14758 PWs)   bands (ev):

    -4.3079  -4.3062  -2.8199  -2.8155  -2.8146  -2.7821  -2.6721  -2.6717
    -2.6436  -2.6427  -0.8608  -0.8481   4.4811   4.4985   6.3061   6.6318
     9.1164   9.1506

     occupation numbers 
     1.0000   1.0000   1.0000   1.0000   1.0000   1.0000   1.0000   1.0000
     1.0000   1.0000   1.0000   1.0000   1.0000   1.0000   1.0000   1.0000
     1.0000   1.0000

          k = 0.3143 0.5774 0.2985 ( 14756 PWs)   bands (ev):

    -4.3066  -4.3061  -2.8176  -2.8169  -2.8054  -2.7937  -2.6723  -2.6721
    -2.6428  -2.6426  -0.8564  -0.8522   4.4773   4.4831   6.4118   6.5206
     9.1503   9.1617

     occupation numbers 
     1.0000   1.0000   1.0000   1.0000   1.0000   1.0000   1.0000   1.0000
     1.0000   1.0000   1.0000   1.0000   1.0000   1.0000   1.0000   1.0000
     1.0000   1.0000

     highest occupied level (ev):    10.6186

!    total energy              =    -347.51875568 Ry
     estimated scf accuracy    <       0.00000055 Ry

     The total energy is the sum of the following terms:
     one-electron contribution =    -105.66925708 Ry
     hartree contribution      =      87.58466780 Ry
     xc contribution           =     -96.27733950 Ry
     ewald contribution        =    -233.15682690 Ry

     convergence has been achieved in  18 iterations

     Writing output data file ../tmp/GaN_exc1.save/
 
     init_run     :     42.93s CPU     44.32s WALL (       1 calls)
     electrons    :   1709.79s CPU   1733.34s WALL (       1 calls)

     Called by init_run:
     wfcinit      :     41.65s CPU     42.95s WALL (       1 calls)
     wfcinit:atom :      1.16s CPU      1.17s WALL (    2160 calls)
     wfcinit:wfcr :     34.23s CPU     34.69s WALL (    2160 calls)
     potinit      :      0.16s CPU      0.16s WALL (       1 calls)
     hinit0       :      0.30s CPU      0.36s WALL (       1 calls)

     Called by electrons:
     c_bands      :   1477.18s CPU   1495.27s WALL (      18 calls)
     sum_band     :    232.07s CPU    237.44s WALL (      18 calls)
     v_of_rho     :      0.40s CPU      0.45s WALL (      19 calls)
     v_h          :      0.02s CPU      0.02s WALL (      19 calls)
     v_xc         :      0.39s CPU      0.43s WALL (      19 calls)
     mix_rho      :      0.11s CPU      0.14s WALL (      18 calls)

     Called by c_bands:
     init_us_2    :     63.62s CPU     66.55s WALL (   79920 calls)
     cegterg      :   1258.99s CPU   1273.72s WALL (   38880 calls)

     Called by sum_band:
     sum_band:wei :      0.00s CPU      0.01s WALL (      18 calls)
     sum_band:loo :    232.00s CPU    237.35s WALL (      18 calls)
     sum_band:buf :      8.33s CPU      9.26s WALL (   38880 calls)
     sum_band:ini :     31.30s CPU     33.13s WALL (   38880 calls)

     Called by *egterg:
     cdiaghg      :     94.19s CPU     94.90s WALL (  117054 calls)
     cegterg:over :     63.52s CPU     63.92s WALL (   78174 calls)
     cegterg:upda :     36.08s CPU     36.41s WALL (   78174 calls)
     cegterg:last :     58.88s CPU     59.24s WALL (   67732 calls)
     cdiaghg:chol :     10.39s CPU     10.49s WALL (  117054 calls)
     cdiaghg:inve :      2.26s CPU      2.30s WALL (  117054 calls)
     cdiaghg:para :     10.25s CPU     10.26s WALL (  234108 calls)
     h_psi        :    991.57s CPU   1004.99s WALL (  119214 calls)
     g_psi        :      7.59s CPU      7.67s WALL (   78174 calls)

     Called by h_psi:
     h_psi:calbec :     62.98s CPU     63.80s WALL (  119214 calls)
     vloc_psi     :    838.88s CPU    850.92s WALL (  119214 calls)
     add_vuspsi   :     77.42s CPU     77.99s WALL (  119214 calls)

     General routines
     calbec       :     62.57s CPU     63.49s WALL (  119214 calls)
     fft          :      0.14s CPU      0.19s WALL (     190 calls)
     ffts         :      0.01s CPU      0.01s WALL (      18 calls)
     fftw         :    813.98s CPU    824.88s WALL ( 4113138 calls)
 
     Parallel routines
 
     PWSCF        :  29m19.31s CPU  29m53.97s WALL

 
   This run was terminated on:  20:57:10  27Mar2023            

=------------------------------------------------------------------------------=
   JOB DONE.
=------------------------------------------------------------------------------=
