
     Program PWSCF v.6.8 starts on 27Mar2023 at 21:26:13 

     This program is part of the open-source Quantum ESPRESSO suite
     for quantum simulation of materials; please cite
         "P. Giannozzi et al., J. Phys.:Condens. Matter 21 395502 (2009);
         "P. Giannozzi et al., J. Phys.:Condens. Matter 29 465901 (2017);
         "P. Giannozzi et al., J. Chem. Phys. 152 154105 (2020);
          URL http://www.quantum-espresso.org", 
     in publications or presentations arising from this work. More details at
     http://www.quantum-espresso.org/quote

     Parallel version (MPI & OpenMP), running on       6 processor cores
     Number of MPI processes:                 6
     Threads/MPI process:                     1

     MPI processes distributed on     1 nodes
     R & G space division:  proc/nbgrp/npool/nimage =       6
     59410 MiB available memory on the printing compute node when the environment starts
 
     Waiting for input...
     Reading input from standard input
Warning: card &CELL ignored
Warning: card / ignored

     Current dimensions of program PWSCF are:
     Max number of different atomic species (ntypx) = 10
     Max number of k-points (npk) =  40000
     Max angular momentum in pseudopotentials (lmaxx) =  4

     Subspace diagonalization in iterative solution of the eigenvalue problem:
     one sub-group per band group will be used
     scalapack distributed-memory algorithm (size of sub-group:  2*  2 procs)

 
     Parallelization info
     --------------------
     sticks:   dense  smooth     PW     G-vecs:    dense   smooth      PW
     Min         332     332     93                19646    19646    2883
     Max         333     333     94                19651    19651    2888
     Sum        1993    1993    559               117881   117881   17309
 
     Using Slab Decomposition
 


     bravais-lattice index     =            4
     lattice parameter (alat)  =       6.0282  a.u.
     unit-cell volume          =     308.6570 (a.u.)^3
     number of atoms/cell      =            4
     number of atomic types    =            2
     number of electrons       =        36.00
     number of Kohn-Sham states=           18
     kinetic-energy cutoff     =     200.0000  Ry
     charge density cutoff     =     800.0000  Ry
     scf convergence threshold =      1.0E-06
     mixing beta               =       0.7000
     number of iterations used =            8  plain     mixing
     Exchange-correlation= PBE
                           (   1   4   3   4   0   0   0)

     celldm(1)=   6.028226  celldm(2)=   0.000000  celldm(3)=   1.626960
     celldm(4)=   0.000000  celldm(5)=   0.000000  celldm(6)=   0.000000

     crystal axes: (cart. coord. in units of alat)
               a(1) = (   1.000000   0.000000   0.000000 )  
               a(2) = (  -0.500000   0.866025   0.000000 )  
               a(3) = (   0.000000   0.000000   1.626960 )  

     reciprocal axes: (cart. coord. in units 2 pi/alat)
               b(1) = (  1.000000  0.577350  0.000000 )  
               b(2) = (  0.000000  1.154701  0.000000 )  
               b(3) = (  0.000000  0.000000  0.614643 )  


     PseudoPot. # 1 for Ga read from file:
     ../pseudo/Ga_ONCV_PBE_sr.upf
     MD5 check sum: e3654b1fbeb096be7359f640ef9d98d7
     Pseudo is Norm-conserving + core correction, Zval = 13.0
     Generated using ONCVPSP code by D. R. Hamann
     Using radial grid of 1902 points,  6 beta functions with: 
                l(1) =   0
                l(2) =   0
                l(3) =   1
                l(4) =   1
                l(5) =   2
                l(6) =   2

     PseudoPot. # 2 for N  read from file:
     ../pseudo/N_ONCV_PBE_sr.upf
     MD5 check sum: 18c6af81dac9c5a2d6d52ed11cf7bfee
     Pseudo is Norm-conserving + core correction, Zval =  5.0
     Generated using ONCVPSP code by D. R. Hamann
     Using radial grid of 1058 points,  4 beta functions with: 
                l(1) =   0
                l(2) =   0
                l(3) =   1
                l(4) =   1

     atomic species   valence    mass     pseudopotential
        Ga            13.00    69.72300     Ga( 1.00)
        N              5.00    14.00700     N ( 1.00)

     12 Sym. Ops. (no inversion) found ( 6 have fractional translation)


                                    s                        frac. trans.

      isym =  1     identity                                     

 cryst.   s( 1) = (     1          0          0      )
                  (     0          1          0      )
                  (     0          0          1      )

 cart.    s( 1) = (  1.0000000  0.0000000  0.0000000 )
                  (  0.0000000  1.0000000  0.0000000 )
                  (  0.0000000  0.0000000  1.0000000 )


      isym =  2     180 deg rotation - cart. axis [0,0,1]        

 cryst.   s( 2) = (    -1          0          0      )    f =(  0.0000000 )
                  (     0         -1          0      )       (  0.0000000 )
                  (     0          0          1      )       ( -0.5000000 )

 cart.    s( 2) = ( -1.0000000  0.0000000  0.0000000 )    f =(  0.0000000 )
                  (  0.0000000 -1.0000000  0.0000000 )       (  0.0000000 )
                  (  0.0000000  0.0000000  1.0000000 )       ( -0.8134800 )


      isym =  3      60 deg rotation - cryst. axis [0,0,1]       

 cryst.   s( 3) = (     1          1          0      )    f =(  0.0000000 )
                  (    -1          0          0      )       (  0.0000000 )
                  (     0          0          1      )       ( -0.5000000 )

 cart.    s( 3) = (  0.5000000 -0.8660254  0.0000000 )    f =(  0.0000000 )
                  (  0.8660254  0.5000000  0.0000000 )       (  0.0000000 )
                  (  0.0000000  0.0000000  1.0000000 )       ( -0.8134800 )


      isym =  4      60 deg rotation - cryst. axis [0,0,-1]      

 cryst.   s( 4) = (     0         -1          0      )    f =(  0.0000000 )
                  (     1          1          0      )       (  0.0000000 )
                  (     0          0          1      )       ( -0.5000000 )

 cart.    s( 4) = (  0.5000000  0.8660254  0.0000000 )    f =(  0.0000000 )
                  ( -0.8660254  0.5000000  0.0000000 )       (  0.0000000 )
                  (  0.0000000  0.0000000  1.0000000 )       ( -0.8134800 )


      isym =  5     120 deg rotation - cryst. axis [0,0,1]       

 cryst.   s( 5) = (     0          1          0      )
                  (    -1         -1          0      )
                  (     0          0          1      )

 cart.    s( 5) = ( -0.5000000 -0.8660254  0.0000000 )
                  (  0.8660254 -0.5000000  0.0000000 )
                  (  0.0000000  0.0000000  1.0000000 )


      isym =  6     120 deg rotation - cryst. axis [0,0,-1]      

 cryst.   s( 6) = (    -1         -1          0      )
                  (     1          0          0      )
                  (     0          0          1      )

 cart.    s( 6) = ( -0.5000000  0.8660254  0.0000000 )
                  ( -0.8660254 -0.5000000  0.0000000 )
                  (  0.0000000  0.0000000  1.0000000 )


      isym =  7     inv. 180 deg rotation - cart. axis [0,1,0]   

 cryst.   s( 7) = (     1          0          0      )    f =(  0.0000000 )
                  (    -1         -1          0      )       (  0.0000000 )
                  (     0          0          1      )       ( -0.5000000 )

 cart.    s( 7) = (  1.0000000  0.0000000  0.0000000 )    f =(  0.0000000 )
                  (  0.0000000 -1.0000000  0.0000000 )       (  0.0000000 )
                  (  0.0000000  0.0000000  1.0000000 )       ( -0.8134800 )


      isym =  8     inv. 180 deg rotation - cart. axis [1,0,0]   

 cryst.   s( 8) = (    -1          0          0      )
                  (     1          1          0      )
                  (     0          0          1      )

 cart.    s( 8) = ( -1.0000000  0.0000000  0.0000000 )
                  (  0.0000000  1.0000000  0.0000000 )
                  (  0.0000000  0.0000000  1.0000000 )


      isym =  9     inv. 180 deg rotation - cryst. axis [1,-1,0] 

 cryst.   s( 9) = (     0          1          0      )    f =(  0.0000000 )
                  (     1          0          0      )       (  0.0000000 )
                  (     0          0          1      )       ( -0.5000000 )

 cart.    s( 9) = ( -0.5000000  0.8660254  0.0000000 )    f =(  0.0000000 )
                  (  0.8660254  0.5000000  0.0000000 )       (  0.0000000 )
                  (  0.0000000  0.0000000  1.0000000 )       ( -0.8134800 )


      isym = 10     inv. 180 deg rotation - cryst. axis [2,1,0]  

 cryst.   s(10) = (    -1         -1          0      )    f =(  0.0000000 )
                  (     0          1          0      )       (  0.0000000 )
                  (     0          0          1      )       ( -0.5000000 )

 cart.    s(10) = ( -0.5000000 -0.8660254  0.0000000 )    f =(  0.0000000 )
                  ( -0.8660254  0.5000000  0.0000000 )       (  0.0000000 )
                  (  0.0000000  0.0000000  1.0000000 )       ( -0.8134800 )


      isym = 11     inv. 180 deg rotation - cryst. axis [0,1,0]  

 cryst.   s(11) = (     1          1          0      )
                  (     0         -1          0      )
                  (     0          0          1      )

 cart.    s(11) = (  0.5000000  0.8660254  0.0000000 )
                  (  0.8660254 -0.5000000  0.0000000 )
                  (  0.0000000  0.0000000  1.0000000 )


      isym = 12     inv. 180 deg rotation - cryst. axis [1,1,0]  

 cryst.   s(12) = (     0         -1          0      )
                  (    -1          0          0      )
                  (     0          0          1      )

 cart.    s(12) = (  0.5000000 -0.8660254  0.0000000 )
                  ( -0.8660254 -0.5000000  0.0000000 )
                  (  0.0000000  0.0000000  1.0000000 )


     point group C_6v (6mm) 
     there are  6 classes
     the character table:

       E     2C6   2C3   C2    3s_v  3s_d 
A_1    1.00  1.00  1.00  1.00  1.00  1.00
A_2    1.00  1.00  1.00  1.00 -1.00 -1.00
B_1    1.00 -1.00  1.00 -1.00  1.00 -1.00
B_2    1.00 -1.00  1.00 -1.00 -1.00  1.00
E_1    2.00  1.00 -1.00 -2.00  0.00  0.00
E_2    2.00 -1.00 -1.00  2.00  0.00  0.00

     the symmetry operations in each class and the name of the first element:

     E        1
          identity                                               
     2C6      3    4
           60 deg rotation - cryst. axis [0,0,1]                 
     2C3      5    6
          120 deg rotation - cryst. axis [0,0,1]                 
     C2       2
          180 deg rotation - cart. axis [0,0,1]                  
     3s_v     8   12   11
          inv. 180 deg rotation - cart. axis [1,0,0]             
     3s_d     7    9   10
          inv. 180 deg rotation - cart. axis [0,1,0]             

   Cartesian axes

     site n.     atom                  positions (alat units)
         1           Ga  tau(   1) = (   0.5000000   0.2886751   0.8119892  )
         2           Ga  tau(   2) = (   0.0000000   0.5773503   1.6254692  )
         3           N   tau(   3) = (   0.5000000   0.2886751   1.4250808  )
         4           N   tau(   4) = (   0.0000000   0.5773503   0.6116008  )

   Crystallographic axes

     site n.     atom                  positions (cryst. coord.)
         1           Ga  tau(   1) = (  0.6666667  0.3333333  0.4990837  )
         2           Ga  tau(   2) = (  0.3333333  0.6666667  0.9990837  )
         3           N   tau(   3) = (  0.6666667  0.3333333  0.8759163  )
         4           N   tau(   4) = (  0.3333333  0.6666667  0.3759163  )

     number of k points=  4416
                       cart. coord. in units 2pi/alat
        k(    1) = (   0.0000000   0.0000000   0.0000000), wk =   0.0000219
        k(    2) = (   0.0000000   0.0000000   0.0136587), wk =   0.0000439
        k(    3) = (   0.0000000   0.0000000   0.0273175), wk =   0.0000439
        k(    4) = (   0.0000000   0.0000000   0.0409762), wk =   0.0000439
        k(    5) = (   0.0000000   0.0000000   0.0546350), wk =   0.0000439
        k(    6) = (   0.0000000   0.0000000   0.0682937), wk =   0.0000439
        k(    7) = (   0.0000000   0.0000000   0.0819524), wk =   0.0000439
        k(    8) = (   0.0000000   0.0000000   0.0956112), wk =   0.0000439
        k(    9) = (   0.0000000   0.0000000   0.1092699), wk =   0.0000439
        k(   10) = (   0.0000000   0.0000000   0.1229287), wk =   0.0000439
        k(   11) = (   0.0000000   0.0000000   0.1365874), wk =   0.0000439
        k(   12) = (   0.0000000   0.0000000   0.1502461), wk =   0.0000439
        k(   13) = (   0.0000000   0.0000000   0.1639049), wk =   0.0000439
        k(   14) = (   0.0000000   0.0000000   0.1775636), wk =   0.0000439
        k(   15) = (   0.0000000   0.0000000   0.1912223), wk =   0.0000439
        k(   16) = (   0.0000000   0.0000000   0.2048811), wk =   0.0000439
        k(   17) = (   0.0000000   0.0000000   0.2185398), wk =   0.0000439
        k(   18) = (   0.0000000   0.0000000   0.2321986), wk =   0.0000439
        k(   19) = (   0.0000000   0.0000000   0.2458573), wk =   0.0000439
        k(   20) = (   0.0000000   0.0000000   0.2595160), wk =   0.0000439
        k(   21) = (   0.0000000   0.0000000   0.2731748), wk =   0.0000439
        k(   22) = (   0.0000000   0.0000000   0.2868335), wk =   0.0000439
        k(   23) = (   0.0000000   0.0000000   0.3004923), wk =   0.0000439
        k(   24) = (   0.0000000   0.0256600   0.0000000), wk =   0.0001317
        k(   25) = (   0.0000000   0.0256600   0.0136587), wk =   0.0002634
        k(   26) = (   0.0000000   0.0256600   0.0273175), wk =   0.0002634
        k(   27) = (   0.0000000   0.0256600   0.0409762), wk =   0.0002634
        k(   28) = (   0.0000000   0.0256600   0.0546350), wk =   0.0002634
        k(   29) = (   0.0000000   0.0256600   0.0682937), wk =   0.0002634
        k(   30) = (   0.0000000   0.0256600   0.0819524), wk =   0.0002634
        k(   31) = (   0.0000000   0.0256600   0.0956112), wk =   0.0002634
        k(   32) = (   0.0000000   0.0256600   0.1092699), wk =   0.0002634
        k(   33) = (   0.0000000   0.0256600   0.1229287), wk =   0.0002634
        k(   34) = (   0.0000000   0.0256600   0.1365874), wk =   0.0002634
        k(   35) = (   0.0000000   0.0256600   0.1502461), wk =   0.0002634
        k(   36) = (   0.0000000   0.0256600   0.1639049), wk =   0.0002634
        k(   37) = (   0.0000000   0.0256600   0.1775636), wk =   0.0002634
        k(   38) = (   0.0000000   0.0256600   0.1912223), wk =   0.0002634
        k(   39) = (   0.0000000   0.0256600   0.2048811), wk =   0.0002634
        k(   40) = (   0.0000000   0.0256600   0.2185398), wk =   0.0002634
        k(   41) = (   0.0000000   0.0256600   0.2321986), wk =   0.0002634
        k(   42) = (   0.0000000   0.0256600   0.2458573), wk =   0.0002634
        k(   43) = (   0.0000000   0.0256600   0.2595160), wk =   0.0002634
        k(   44) = (   0.0000000   0.0256600   0.2731748), wk =   0.0002634
        k(   45) = (   0.0000000   0.0256600   0.2868335), wk =   0.0002634
        k(   46) = (   0.0000000   0.0256600   0.3004923), wk =   0.0002634
        k(   47) = (   0.0000000   0.0513200   0.0000000), wk =   0.0001317
        k(   48) = (   0.0000000   0.0513200   0.0136587), wk =   0.0002634
        k(   49) = (   0.0000000   0.0513200   0.0273175), wk =   0.0002634
        k(   50) = (   0.0000000   0.0513200   0.0409762), wk =   0.0002634
        k(   51) = (   0.0000000   0.0513200   0.0546350), wk =   0.0002634
        k(   52) = (   0.0000000   0.0513200   0.0682937), wk =   0.0002634
        k(   53) = (   0.0000000   0.0513200   0.0819524), wk =   0.0002634
        k(   54) = (   0.0000000   0.0513200   0.0956112), wk =   0.0002634
        k(   55) = (   0.0000000   0.0513200   0.1092699), wk =   0.0002634
        k(   56) = (   0.0000000   0.0513200   0.1229287), wk =   0.0002634
        k(   57) = (   0.0000000   0.0513200   0.1365874), wk =   0.0002634
        k(   58) = (   0.0000000   0.0513200   0.1502461), wk =   0.0002634
        k(   59) = (   0.0000000   0.0513200   0.1639049), wk =   0.0002634
        k(   60) = (   0.0000000   0.0513200   0.1775636), wk =   0.0002634
        k(   61) = (   0.0000000   0.0513200   0.1912223), wk =   0.0002634
        k(   62) = (   0.0000000   0.0513200   0.2048811), wk =   0.0002634
        k(   63) = (   0.0000000   0.0513200   0.2185398), wk =   0.0002634
        k(   64) = (   0.0000000   0.0513200   0.2321986), wk =   0.0002634
        k(   65) = (   0.0000000   0.0513200   0.2458573), wk =   0.0002634
        k(   66) = (   0.0000000   0.0513200   0.2595160), wk =   0.0002634
        k(   67) = (   0.0000000   0.0513200   0.2731748), wk =   0.0002634
        k(   68) = (   0.0000000   0.0513200   0.2868335), wk =   0.0002634
        k(   69) = (   0.0000000   0.0513200   0.3004923), wk =   0.0002634
        k(   70) = (   0.0000000   0.0769800   0.0000000), wk =   0.0001317
        k(   71) = (   0.0000000   0.0769800   0.0136587), wk =   0.0002634
        k(   72) = (   0.0000000   0.0769800   0.0273175), wk =   0.0002634
        k(   73) = (   0.0000000   0.0769800   0.0409762), wk =   0.0002634
        k(   74) = (   0.0000000   0.0769800   0.0546350), wk =   0.0002634
        k(   75) = (   0.0000000   0.0769800   0.0682937), wk =   0.0002634
        k(   76) = (   0.0000000   0.0769800   0.0819524), wk =   0.0002634
        k(   77) = (   0.0000000   0.0769800   0.0956112), wk =   0.0002634
        k(   78) = (   0.0000000   0.0769800   0.1092699), wk =   0.0002634
        k(   79) = (   0.0000000   0.0769800   0.1229287), wk =   0.0002634
        k(   80) = (   0.0000000   0.0769800   0.1365874), wk =   0.0002634
        k(   81) = (   0.0000000   0.0769800   0.1502461), wk =   0.0002634
        k(   82) = (   0.0000000   0.0769800   0.1639049), wk =   0.0002634
        k(   83) = (   0.0000000   0.0769800   0.1775636), wk =   0.0002634
        k(   84) = (   0.0000000   0.0769800   0.1912223), wk =   0.0002634
        k(   85) = (   0.0000000   0.0769800   0.2048811), wk =   0.0002634
        k(   86) = (   0.0000000   0.0769800   0.2185398), wk =   0.0002634
        k(   87) = (   0.0000000   0.0769800   0.2321986), wk =   0.0002634
        k(   88) = (   0.0000000   0.0769800   0.2458573), wk =   0.0002634
        k(   89) = (   0.0000000   0.0769800   0.2595160), wk =   0.0002634
        k(   90) = (   0.0000000   0.0769800   0.2731748), wk =   0.0002634
        k(   91) = (   0.0000000   0.0769800   0.2868335), wk =   0.0002634
        k(   92) = (   0.0000000   0.0769800   0.3004923), wk =   0.0002634
        k(   93) = (   0.0000000   0.1026400   0.0000000), wk =   0.0001317
        k(   94) = (   0.0000000   0.1026400   0.0136587), wk =   0.0002634
        k(   95) = (   0.0000000   0.1026400   0.0273175), wk =   0.0002634
        k(   96) = (   0.0000000   0.1026400   0.0409762), wk =   0.0002634
        k(   97) = (   0.0000000   0.1026400   0.0546350), wk =   0.0002634
        k(   98) = (   0.0000000   0.1026400   0.0682937), wk =   0.0002634
        k(   99) = (   0.0000000   0.1026400   0.0819524), wk =   0.0002634
        k(  100) = (   0.0000000   0.1026400   0.0956112), wk =   0.0002634
        k(  101) = (   0.0000000   0.1026400   0.1092699), wk =   0.0002634
        k(  102) = (   0.0000000   0.1026400   0.1229287), wk =   0.0002634
        k(  103) = (   0.0000000   0.1026400   0.1365874), wk =   0.0002634
        k(  104) = (   0.0000000   0.1026400   0.1502461), wk =   0.0002634
        k(  105) = (   0.0000000   0.1026400   0.1639049), wk =   0.0002634
        k(  106) = (   0.0000000   0.1026400   0.1775636), wk =   0.0002634
        k(  107) = (   0.0000000   0.1026400   0.1912223), wk =   0.0002634
        k(  108) = (   0.0000000   0.1026400   0.2048811), wk =   0.0002634
        k(  109) = (   0.0000000   0.1026400   0.2185398), wk =   0.0002634
        k(  110) = (   0.0000000   0.1026400   0.2321986), wk =   0.0002634
        k(  111) = (   0.0000000   0.1026400   0.2458573), wk =   0.0002634
        k(  112) = (   0.0000000   0.1026400   0.2595160), wk =   0.0002634
        k(  113) = (   0.0000000   0.1026400   0.2731748), wk =   0.0002634
        k(  114) = (   0.0000000   0.1026400   0.2868335), wk =   0.0002634
        k(  115) = (   0.0000000   0.1026400   0.3004923), wk =   0.0002634
        k(  116) = (   0.0000000   0.1283001   0.0000000), wk =   0.0001317
        k(  117) = (   0.0000000   0.1283001   0.0136587), wk =   0.0002634
        k(  118) = (   0.0000000   0.1283001   0.0273175), wk =   0.0002634
        k(  119) = (   0.0000000   0.1283001   0.0409762), wk =   0.0002634
        k(  120) = (   0.0000000   0.1283001   0.0546350), wk =   0.0002634
        k(  121) = (   0.0000000   0.1283001   0.0682937), wk =   0.0002634
        k(  122) = (   0.0000000   0.1283001   0.0819524), wk =   0.0002634
        k(  123) = (   0.0000000   0.1283001   0.0956112), wk =   0.0002634
        k(  124) = (   0.0000000   0.1283001   0.1092699), wk =   0.0002634
        k(  125) = (   0.0000000   0.1283001   0.1229287), wk =   0.0002634
        k(  126) = (   0.0000000   0.1283001   0.1365874), wk =   0.0002634
        k(  127) = (   0.0000000   0.1283001   0.1502461), wk =   0.0002634
        k(  128) = (   0.0000000   0.1283001   0.1639049), wk =   0.0002634
        k(  129) = (   0.0000000   0.1283001   0.1775636), wk =   0.0002634
        k(  130) = (   0.0000000   0.1283001   0.1912223), wk =   0.0002634
        k(  131) = (   0.0000000   0.1283001   0.2048811), wk =   0.0002634
        k(  132) = (   0.0000000   0.1283001   0.2185398), wk =   0.0002634
        k(  133) = (   0.0000000   0.1283001   0.2321986), wk =   0.0002634
        k(  134) = (   0.0000000   0.1283001   0.2458573), wk =   0.0002634
        k(  135) = (   0.0000000   0.1283001   0.2595160), wk =   0.0002634
        k(  136) = (   0.0000000   0.1283001   0.2731748), wk =   0.0002634
        k(  137) = (   0.0000000   0.1283001   0.2868335), wk =   0.0002634
        k(  138) = (   0.0000000   0.1283001   0.3004923), wk =   0.0002634
        k(  139) = (   0.0000000   0.1539601   0.0000000), wk =   0.0001317
        k(  140) = (   0.0000000   0.1539601   0.0136587), wk =   0.0002634
        k(  141) = (   0.0000000   0.1539601   0.0273175), wk =   0.0002634
        k(  142) = (   0.0000000   0.1539601   0.0409762), wk =   0.0002634
        k(  143) = (   0.0000000   0.1539601   0.0546350), wk =   0.0002634
        k(  144) = (   0.0000000   0.1539601   0.0682937), wk =   0.0002634
        k(  145) = (   0.0000000   0.1539601   0.0819524), wk =   0.0002634
        k(  146) = (   0.0000000   0.1539601   0.0956112), wk =   0.0002634
        k(  147) = (   0.0000000   0.1539601   0.1092699), wk =   0.0002634
        k(  148) = (   0.0000000   0.1539601   0.1229287), wk =   0.0002634
        k(  149) = (   0.0000000   0.1539601   0.1365874), wk =   0.0002634
        k(  150) = (   0.0000000   0.1539601   0.1502461), wk =   0.0002634
        k(  151) = (   0.0000000   0.1539601   0.1639049), wk =   0.0002634
        k(  152) = (   0.0000000   0.1539601   0.1775636), wk =   0.0002634
        k(  153) = (   0.0000000   0.1539601   0.1912223), wk =   0.0002634
        k(  154) = (   0.0000000   0.1539601   0.2048811), wk =   0.0002634
        k(  155) = (   0.0000000   0.1539601   0.2185398), wk =   0.0002634
        k(  156) = (   0.0000000   0.1539601   0.2321986), wk =   0.0002634
        k(  157) = (   0.0000000   0.1539601   0.2458573), wk =   0.0002634
        k(  158) = (   0.0000000   0.1539601   0.2595160), wk =   0.0002634
        k(  159) = (   0.0000000   0.1539601   0.2731748), wk =   0.0002634
        k(  160) = (   0.0000000   0.1539601   0.2868335), wk =   0.0002634
        k(  161) = (   0.0000000   0.1539601   0.3004923), wk =   0.0002634
        k(  162) = (   0.0000000   0.1796201   0.0000000), wk =   0.0001317
        k(  163) = (   0.0000000   0.1796201   0.0136587), wk =   0.0002634
        k(  164) = (   0.0000000   0.1796201   0.0273175), wk =   0.0002634
        k(  165) = (   0.0000000   0.1796201   0.0409762), wk =   0.0002634
        k(  166) = (   0.0000000   0.1796201   0.0546350), wk =   0.0002634
        k(  167) = (   0.0000000   0.1796201   0.0682937), wk =   0.0002634
        k(  168) = (   0.0000000   0.1796201   0.0819524), wk =   0.0002634
        k(  169) = (   0.0000000   0.1796201   0.0956112), wk =   0.0002634
        k(  170) = (   0.0000000   0.1796201   0.1092699), wk =   0.0002634
        k(  171) = (   0.0000000   0.1796201   0.1229287), wk =   0.0002634
        k(  172) = (   0.0000000   0.1796201   0.1365874), wk =   0.0002634
        k(  173) = (   0.0000000   0.1796201   0.1502461), wk =   0.0002634
        k(  174) = (   0.0000000   0.1796201   0.1639049), wk =   0.0002634
        k(  175) = (   0.0000000   0.1796201   0.1775636), wk =   0.0002634
        k(  176) = (   0.0000000   0.1796201   0.1912223), wk =   0.0002634
        k(  177) = (   0.0000000   0.1796201   0.2048811), wk =   0.0002634
        k(  178) = (   0.0000000   0.1796201   0.2185398), wk =   0.0002634
        k(  179) = (   0.0000000   0.1796201   0.2321986), wk =   0.0002634
        k(  180) = (   0.0000000   0.1796201   0.2458573), wk =   0.0002634
        k(  181) = (   0.0000000   0.1796201   0.2595160), wk =   0.0002634
        k(  182) = (   0.0000000   0.1796201   0.2731748), wk =   0.0002634
        k(  183) = (   0.0000000   0.1796201   0.2868335), wk =   0.0002634
        k(  184) = (   0.0000000   0.1796201   0.3004923), wk =   0.0002634
        k(  185) = (   0.0000000   0.2052801   0.0000000), wk =   0.0001317
        k(  186) = (   0.0000000   0.2052801   0.0136587), wk =   0.0002634
        k(  187) = (   0.0000000   0.2052801   0.0273175), wk =   0.0002634
        k(  188) = (   0.0000000   0.2052801   0.0409762), wk =   0.0002634
        k(  189) = (   0.0000000   0.2052801   0.0546350), wk =   0.0002634
        k(  190) = (   0.0000000   0.2052801   0.0682937), wk =   0.0002634
        k(  191) = (   0.0000000   0.2052801   0.0819524), wk =   0.0002634
        k(  192) = (   0.0000000   0.2052801   0.0956112), wk =   0.0002634
        k(  193) = (   0.0000000   0.2052801   0.1092699), wk =   0.0002634
        k(  194) = (   0.0000000   0.2052801   0.1229287), wk =   0.0002634
        k(  195) = (   0.0000000   0.2052801   0.1365874), wk =   0.0002634
        k(  196) = (   0.0000000   0.2052801   0.1502461), wk =   0.0002634
        k(  197) = (   0.0000000   0.2052801   0.1639049), wk =   0.0002634
        k(  198) = (   0.0000000   0.2052801   0.1775636), wk =   0.0002634
        k(  199) = (   0.0000000   0.2052801   0.1912223), wk =   0.0002634
        k(  200) = (   0.0000000   0.2052801   0.2048811), wk =   0.0002634
        k(  201) = (   0.0000000   0.2052801   0.2185398), wk =   0.0002634
        k(  202) = (   0.0000000   0.2052801   0.2321986), wk =   0.0002634
        k(  203) = (   0.0000000   0.2052801   0.2458573), wk =   0.0002634
        k(  204) = (   0.0000000   0.2052801   0.2595160), wk =   0.0002634
        k(  205) = (   0.0000000   0.2052801   0.2731748), wk =   0.0002634
        k(  206) = (   0.0000000   0.2052801   0.2868335), wk =   0.0002634
        k(  207) = (   0.0000000   0.2052801   0.3004923), wk =   0.0002634
        k(  208) = (   0.0000000   0.2309401   0.0000000), wk =   0.0001317
        k(  209) = (   0.0000000   0.2309401   0.0136587), wk =   0.0002634
        k(  210) = (   0.0000000   0.2309401   0.0273175), wk =   0.0002634
        k(  211) = (   0.0000000   0.2309401   0.0409762), wk =   0.0002634
        k(  212) = (   0.0000000   0.2309401   0.0546350), wk =   0.0002634
        k(  213) = (   0.0000000   0.2309401   0.0682937), wk =   0.0002634
        k(  214) = (   0.0000000   0.2309401   0.0819524), wk =   0.0002634
        k(  215) = (   0.0000000   0.2309401   0.0956112), wk =   0.0002634
        k(  216) = (   0.0000000   0.2309401   0.1092699), wk =   0.0002634
        k(  217) = (   0.0000000   0.2309401   0.1229287), wk =   0.0002634
        k(  218) = (   0.0000000   0.2309401   0.1365874), wk =   0.0002634
        k(  219) = (   0.0000000   0.2309401   0.1502461), wk =   0.0002634
        k(  220) = (   0.0000000   0.2309401   0.1639049), wk =   0.0002634
        k(  221) = (   0.0000000   0.2309401   0.1775636), wk =   0.0002634
        k(  222) = (   0.0000000   0.2309401   0.1912223), wk =   0.0002634
        k(  223) = (   0.0000000   0.2309401   0.2048811), wk =   0.0002634
        k(  224) = (   0.0000000   0.2309401   0.2185398), wk =   0.0002634
        k(  225) = (   0.0000000   0.2309401   0.2321986), wk =   0.0002634
        k(  226) = (   0.0000000   0.2309401   0.2458573), wk =   0.0002634
        k(  227) = (   0.0000000   0.2309401   0.2595160), wk =   0.0002634
        k(  228) = (   0.0000000   0.2309401   0.2731748), wk =   0.0002634
        k(  229) = (   0.0000000   0.2309401   0.2868335), wk =   0.0002634
        k(  230) = (   0.0000000   0.2309401   0.3004923), wk =   0.0002634
        k(  231) = (   0.0000000   0.2566001   0.0000000), wk =   0.0001317
        k(  232) = (   0.0000000   0.2566001   0.0136587), wk =   0.0002634
        k(  233) = (   0.0000000   0.2566001   0.0273175), wk =   0.0002634
        k(  234) = (   0.0000000   0.2566001   0.0409762), wk =   0.0002634
        k(  235) = (   0.0000000   0.2566001   0.0546350), wk =   0.0002634
        k(  236) = (   0.0000000   0.2566001   0.0682937), wk =   0.0002634
        k(  237) = (   0.0000000   0.2566001   0.0819524), wk =   0.0002634
        k(  238) = (   0.0000000   0.2566001   0.0956112), wk =   0.0002634
        k(  239) = (   0.0000000   0.2566001   0.1092699), wk =   0.0002634
        k(  240) = (   0.0000000   0.2566001   0.1229287), wk =   0.0002634
        k(  241) = (   0.0000000   0.2566001   0.1365874), wk =   0.0002634
        k(  242) = (   0.0000000   0.2566001   0.1502461), wk =   0.0002634
        k(  243) = (   0.0000000   0.2566001   0.1639049), wk =   0.0002634
        k(  244) = (   0.0000000   0.2566001   0.1775636), wk =   0.0002634
        k(  245) = (   0.0000000   0.2566001   0.1912223), wk =   0.0002634
        k(  246) = (   0.0000000   0.2566001   0.2048811), wk =   0.0002634
        k(  247) = (   0.0000000   0.2566001   0.2185398), wk =   0.0002634
        k(  248) = (   0.0000000   0.2566001   0.2321986), wk =   0.0002634
        k(  249) = (   0.0000000   0.2566001   0.2458573), wk =   0.0002634
        k(  250) = (   0.0000000   0.2566001   0.2595160), wk =   0.0002634
        k(  251) = (   0.0000000   0.2566001   0.2731748), wk =   0.0002634
        k(  252) = (   0.0000000   0.2566001   0.2868335), wk =   0.0002634
        k(  253) = (   0.0000000   0.2566001   0.3004923), wk =   0.0002634
        k(  254) = (   0.0000000   0.2822601   0.0000000), wk =   0.0001317
        k(  255) = (   0.0000000   0.2822601   0.0136587), wk =   0.0002634
        k(  256) = (   0.0000000   0.2822601   0.0273175), wk =   0.0002634
        k(  257) = (   0.0000000   0.2822601   0.0409762), wk =   0.0002634
        k(  258) = (   0.0000000   0.2822601   0.0546350), wk =   0.0002634
        k(  259) = (   0.0000000   0.2822601   0.0682937), wk =   0.0002634
        k(  260) = (   0.0000000   0.2822601   0.0819524), wk =   0.0002634
        k(  261) = (   0.0000000   0.2822601   0.0956112), wk =   0.0002634
        k(  262) = (   0.0000000   0.2822601   0.1092699), wk =   0.0002634
        k(  263) = (   0.0000000   0.2822601   0.1229287), wk =   0.0002634
        k(  264) = (   0.0000000   0.2822601   0.1365874), wk =   0.0002634
        k(  265) = (   0.0000000   0.2822601   0.1502461), wk =   0.0002634
        k(  266) = (   0.0000000   0.2822601   0.1639049), wk =   0.0002634
        k(  267) = (   0.0000000   0.2822601   0.1775636), wk =   0.0002634
        k(  268) = (   0.0000000   0.2822601   0.1912223), wk =   0.0002634
        k(  269) = (   0.0000000   0.2822601   0.2048811), wk =   0.0002634
        k(  270) = (   0.0000000   0.2822601   0.2185398), wk =   0.0002634
        k(  271) = (   0.0000000   0.2822601   0.2321986), wk =   0.0002634
        k(  272) = (   0.0000000   0.2822601   0.2458573), wk =   0.0002634
        k(  273) = (   0.0000000   0.2822601   0.2595160), wk =   0.0002634
        k(  274) = (   0.0000000   0.2822601   0.2731748), wk =   0.0002634
        k(  275) = (   0.0000000   0.2822601   0.2868335), wk =   0.0002634
        k(  276) = (   0.0000000   0.2822601   0.3004923), wk =   0.0002634
        k(  277) = (   0.0000000   0.3079201   0.0000000), wk =   0.0001317
        k(  278) = (   0.0000000   0.3079201   0.0136587), wk =   0.0002634
        k(  279) = (   0.0000000   0.3079201   0.0273175), wk =   0.0002634
        k(  280) = (   0.0000000   0.3079201   0.0409762), wk =   0.0002634
        k(  281) = (   0.0000000   0.3079201   0.0546350), wk =   0.0002634
        k(  282) = (   0.0000000   0.3079201   0.0682937), wk =   0.0002634
        k(  283) = (   0.0000000   0.3079201   0.0819524), wk =   0.0002634
        k(  284) = (   0.0000000   0.3079201   0.0956112), wk =   0.0002634
        k(  285) = (   0.0000000   0.3079201   0.1092699), wk =   0.0002634
        k(  286) = (   0.0000000   0.3079201   0.1229287), wk =   0.0002634
        k(  287) = (   0.0000000   0.3079201   0.1365874), wk =   0.0002634
        k(  288) = (   0.0000000   0.3079201   0.1502461), wk =   0.0002634
        k(  289) = (   0.0000000   0.3079201   0.1639049), wk =   0.0002634
        k(  290) = (   0.0000000   0.3079201   0.1775636), wk =   0.0002634
        k(  291) = (   0.0000000   0.3079201   0.1912223), wk =   0.0002634
        k(  292) = (   0.0000000   0.3079201   0.2048811), wk =   0.0002634
        k(  293) = (   0.0000000   0.3079201   0.2185398), wk =   0.0002634
        k(  294) = (   0.0000000   0.3079201   0.2321986), wk =   0.0002634
        k(  295) = (   0.0000000   0.3079201   0.2458573), wk =   0.0002634
        k(  296) = (   0.0000000   0.3079201   0.2595160), wk =   0.0002634
        k(  297) = (   0.0000000   0.3079201   0.2731748), wk =   0.0002634
        k(  298) = (   0.0000000   0.3079201   0.2868335), wk =   0.0002634
        k(  299) = (   0.0000000   0.3079201   0.3004923), wk =   0.0002634
        k(  300) = (   0.0000000   0.3335802   0.0000000), wk =   0.0001317
        k(  301) = (   0.0000000   0.3335802   0.0136587), wk =   0.0002634
        k(  302) = (   0.0000000   0.3335802   0.0273175), wk =   0.0002634
        k(  303) = (   0.0000000   0.3335802   0.0409762), wk =   0.0002634
        k(  304) = (   0.0000000   0.3335802   0.0546350), wk =   0.0002634
        k(  305) = (   0.0000000   0.3335802   0.0682937), wk =   0.0002634
        k(  306) = (   0.0000000   0.3335802   0.0819524), wk =   0.0002634
        k(  307) = (   0.0000000   0.3335802   0.0956112), wk =   0.0002634
        k(  308) = (   0.0000000   0.3335802   0.1092699), wk =   0.0002634
        k(  309) = (   0.0000000   0.3335802   0.1229287), wk =   0.0002634
        k(  310) = (   0.0000000   0.3335802   0.1365874), wk =   0.0002634
        k(  311) = (   0.0000000   0.3335802   0.1502461), wk =   0.0002634
        k(  312) = (   0.0000000   0.3335802   0.1639049), wk =   0.0002634
        k(  313) = (   0.0000000   0.3335802   0.1775636), wk =   0.0002634
        k(  314) = (   0.0000000   0.3335802   0.1912223), wk =   0.0002634
        k(  315) = (   0.0000000   0.3335802   0.2048811), wk =   0.0002634
        k(  316) = (   0.0000000   0.3335802   0.2185398), wk =   0.0002634
        k(  317) = (   0.0000000   0.3335802   0.2321986), wk =   0.0002634
        k(  318) = (   0.0000000   0.3335802   0.2458573), wk =   0.0002634
        k(  319) = (   0.0000000   0.3335802   0.2595160), wk =   0.0002634
        k(  320) = (   0.0000000   0.3335802   0.2731748), wk =   0.0002634
        k(  321) = (   0.0000000   0.3335802   0.2868335), wk =   0.0002634
        k(  322) = (   0.0000000   0.3335802   0.3004923), wk =   0.0002634
        k(  323) = (   0.0000000   0.3592402   0.0000000), wk =   0.0001317
        k(  324) = (   0.0000000   0.3592402   0.0136587), wk =   0.0002634
        k(  325) = (   0.0000000   0.3592402   0.0273175), wk =   0.0002634
        k(  326) = (   0.0000000   0.3592402   0.0409762), wk =   0.0002634
        k(  327) = (   0.0000000   0.3592402   0.0546350), wk =   0.0002634
        k(  328) = (   0.0000000   0.3592402   0.0682937), wk =   0.0002634
        k(  329) = (   0.0000000   0.3592402   0.0819524), wk =   0.0002634
        k(  330) = (   0.0000000   0.3592402   0.0956112), wk =   0.0002634
        k(  331) = (   0.0000000   0.3592402   0.1092699), wk =   0.0002634
        k(  332) = (   0.0000000   0.3592402   0.1229287), wk =   0.0002634
        k(  333) = (   0.0000000   0.3592402   0.1365874), wk =   0.0002634
        k(  334) = (   0.0000000   0.3592402   0.1502461), wk =   0.0002634
        k(  335) = (   0.0000000   0.3592402   0.1639049), wk =   0.0002634
        k(  336) = (   0.0000000   0.3592402   0.1775636), wk =   0.0002634
        k(  337) = (   0.0000000   0.3592402   0.1912223), wk =   0.0002634
        k(  338) = (   0.0000000   0.3592402   0.2048811), wk =   0.0002634
        k(  339) = (   0.0000000   0.3592402   0.2185398), wk =   0.0002634
        k(  340) = (   0.0000000   0.3592402   0.2321986), wk =   0.0002634
        k(  341) = (   0.0000000   0.3592402   0.2458573), wk =   0.0002634
        k(  342) = (   0.0000000   0.3592402   0.2595160), wk =   0.0002634
        k(  343) = (   0.0000000   0.3592402   0.2731748), wk =   0.0002634
        k(  344) = (   0.0000000   0.3592402   0.2868335), wk =   0.0002634
        k(  345) = (   0.0000000   0.3592402   0.3004923), wk =   0.0002634
        k(  346) = (   0.0000000   0.3849002   0.0000000), wk =   0.0001317
        k(  347) = (   0.0000000   0.3849002   0.0136587), wk =   0.0002634
        k(  348) = (   0.0000000   0.3849002   0.0273175), wk =   0.0002634
        k(  349) = (   0.0000000   0.3849002   0.0409762), wk =   0.0002634
        k(  350) = (   0.0000000   0.3849002   0.0546350), wk =   0.0002634
        k(  351) = (   0.0000000   0.3849002   0.0682937), wk =   0.0002634
        k(  352) = (   0.0000000   0.3849002   0.0819524), wk =   0.0002634
        k(  353) = (   0.0000000   0.3849002   0.0956112), wk =   0.0002634
        k(  354) = (   0.0000000   0.3849002   0.1092699), wk =   0.0002634
        k(  355) = (   0.0000000   0.3849002   0.1229287), wk =   0.0002634
        k(  356) = (   0.0000000   0.3849002   0.1365874), wk =   0.0002634
        k(  357) = (   0.0000000   0.3849002   0.1502461), wk =   0.0002634
        k(  358) = (   0.0000000   0.3849002   0.1639049), wk =   0.0002634
        k(  359) = (   0.0000000   0.3849002   0.1775636), wk =   0.0002634
        k(  360) = (   0.0000000   0.3849002   0.1912223), wk =   0.0002634
        k(  361) = (   0.0000000   0.3849002   0.2048811), wk =   0.0002634
        k(  362) = (   0.0000000   0.3849002   0.2185398), wk =   0.0002634
        k(  363) = (   0.0000000   0.3849002   0.2321986), wk =   0.0002634
        k(  364) = (   0.0000000   0.3849002   0.2458573), wk =   0.0002634
        k(  365) = (   0.0000000   0.3849002   0.2595160), wk =   0.0002634
        k(  366) = (   0.0000000   0.3849002   0.2731748), wk =   0.0002634
        k(  367) = (   0.0000000   0.3849002   0.2868335), wk =   0.0002634
        k(  368) = (   0.0000000   0.3849002   0.3004923), wk =   0.0002634
        k(  369) = (   0.0000000   0.4105602   0.0000000), wk =   0.0001317
        k(  370) = (   0.0000000   0.4105602   0.0136587), wk =   0.0002634
        k(  371) = (   0.0000000   0.4105602   0.0273175), wk =   0.0002634
        k(  372) = (   0.0000000   0.4105602   0.0409762), wk =   0.0002634
        k(  373) = (   0.0000000   0.4105602   0.0546350), wk =   0.0002634
        k(  374) = (   0.0000000   0.4105602   0.0682937), wk =   0.0002634
        k(  375) = (   0.0000000   0.4105602   0.0819524), wk =   0.0002634
        k(  376) = (   0.0000000   0.4105602   0.0956112), wk =   0.0002634
        k(  377) = (   0.0000000   0.4105602   0.1092699), wk =   0.0002634
        k(  378) = (   0.0000000   0.4105602   0.1229287), wk =   0.0002634
        k(  379) = (   0.0000000   0.4105602   0.1365874), wk =   0.0002634
        k(  380) = (   0.0000000   0.4105602   0.1502461), wk =   0.0002634
        k(  381) = (   0.0000000   0.4105602   0.1639049), wk =   0.0002634
        k(  382) = (   0.0000000   0.4105602   0.1775636), wk =   0.0002634
        k(  383) = (   0.0000000   0.4105602   0.1912223), wk =   0.0002634
        k(  384) = (   0.0000000   0.4105602   0.2048811), wk =   0.0002634
        k(  385) = (   0.0000000   0.4105602   0.2185398), wk =   0.0002634
        k(  386) = (   0.0000000   0.4105602   0.2321986), wk =   0.0002634
        k(  387) = (   0.0000000   0.4105602   0.2458573), wk =   0.0002634
        k(  388) = (   0.0000000   0.4105602   0.2595160), wk =   0.0002634
        k(  389) = (   0.0000000   0.4105602   0.2731748), wk =   0.0002634
        k(  390) = (   0.0000000   0.4105602   0.2868335), wk =   0.0002634
        k(  391) = (   0.0000000   0.4105602   0.3004923), wk =   0.0002634
        k(  392) = (   0.0000000   0.4362202   0.0000000), wk =   0.0001317
        k(  393) = (   0.0000000   0.4362202   0.0136587), wk =   0.0002634
        k(  394) = (   0.0000000   0.4362202   0.0273175), wk =   0.0002634
        k(  395) = (   0.0000000   0.4362202   0.0409762), wk =   0.0002634
        k(  396) = (   0.0000000   0.4362202   0.0546350), wk =   0.0002634
        k(  397) = (   0.0000000   0.4362202   0.0682937), wk =   0.0002634
        k(  398) = (   0.0000000   0.4362202   0.0819524), wk =   0.0002634
        k(  399) = (   0.0000000   0.4362202   0.0956112), wk =   0.0002634
        k(  400) = (   0.0000000   0.4362202   0.1092699), wk =   0.0002634
        k(  401) = (   0.0000000   0.4362202   0.1229287), wk =   0.0002634
        k(  402) = (   0.0000000   0.4362202   0.1365874), wk =   0.0002634
        k(  403) = (   0.0000000   0.4362202   0.1502461), wk =   0.0002634
        k(  404) = (   0.0000000   0.4362202   0.1639049), wk =   0.0002634
        k(  405) = (   0.0000000   0.4362202   0.1775636), wk =   0.0002634
        k(  406) = (   0.0000000   0.4362202   0.1912223), wk =   0.0002634
        k(  407) = (   0.0000000   0.4362202   0.2048811), wk =   0.0002634
        k(  408) = (   0.0000000   0.4362202   0.2185398), wk =   0.0002634
        k(  409) = (   0.0000000   0.4362202   0.2321986), wk =   0.0002634
        k(  410) = (   0.0000000   0.4362202   0.2458573), wk =   0.0002634
        k(  411) = (   0.0000000   0.4362202   0.2595160), wk =   0.0002634
        k(  412) = (   0.0000000   0.4362202   0.2731748), wk =   0.0002634
        k(  413) = (   0.0000000   0.4362202   0.2868335), wk =   0.0002634
        k(  414) = (   0.0000000   0.4362202   0.3004923), wk =   0.0002634
        k(  415) = (   0.0000000   0.4618802   0.0000000), wk =   0.0001317
        k(  416) = (   0.0000000   0.4618802   0.0136587), wk =   0.0002634
        k(  417) = (   0.0000000   0.4618802   0.0273175), wk =   0.0002634
        k(  418) = (   0.0000000   0.4618802   0.0409762), wk =   0.0002634
        k(  419) = (   0.0000000   0.4618802   0.0546350), wk =   0.0002634
        k(  420) = (   0.0000000   0.4618802   0.0682937), wk =   0.0002634
        k(  421) = (   0.0000000   0.4618802   0.0819524), wk =   0.0002634
        k(  422) = (   0.0000000   0.4618802   0.0956112), wk =   0.0002634
        k(  423) = (   0.0000000   0.4618802   0.1092699), wk =   0.0002634
        k(  424) = (   0.0000000   0.4618802   0.1229287), wk =   0.0002634
        k(  425) = (   0.0000000   0.4618802   0.1365874), wk =   0.0002634
        k(  426) = (   0.0000000   0.4618802   0.1502461), wk =   0.0002634
        k(  427) = (   0.0000000   0.4618802   0.1639049), wk =   0.0002634
        k(  428) = (   0.0000000   0.4618802   0.1775636), wk =   0.0002634
        k(  429) = (   0.0000000   0.4618802   0.1912223), wk =   0.0002634
        k(  430) = (   0.0000000   0.4618802   0.2048811), wk =   0.0002634
        k(  431) = (   0.0000000   0.4618802   0.2185398), wk =   0.0002634
        k(  432) = (   0.0000000   0.4618802   0.2321986), wk =   0.0002634
        k(  433) = (   0.0000000   0.4618802   0.2458573), wk =   0.0002634
        k(  434) = (   0.0000000   0.4618802   0.2595160), wk =   0.0002634
        k(  435) = (   0.0000000   0.4618802   0.2731748), wk =   0.0002634
        k(  436) = (   0.0000000   0.4618802   0.2868335), wk =   0.0002634
        k(  437) = (   0.0000000   0.4618802   0.3004923), wk =   0.0002634
        k(  438) = (   0.0000000   0.4875402   0.0000000), wk =   0.0001317
        k(  439) = (   0.0000000   0.4875402   0.0136587), wk =   0.0002634
        k(  440) = (   0.0000000   0.4875402   0.0273175), wk =   0.0002634
        k(  441) = (   0.0000000   0.4875402   0.0409762), wk =   0.0002634
        k(  442) = (   0.0000000   0.4875402   0.0546350), wk =   0.0002634
        k(  443) = (   0.0000000   0.4875402   0.0682937), wk =   0.0002634
        k(  444) = (   0.0000000   0.4875402   0.0819524), wk =   0.0002634
        k(  445) = (   0.0000000   0.4875402   0.0956112), wk =   0.0002634
        k(  446) = (   0.0000000   0.4875402   0.1092699), wk =   0.0002634
        k(  447) = (   0.0000000   0.4875402   0.1229287), wk =   0.0002634
        k(  448) = (   0.0000000   0.4875402   0.1365874), wk =   0.0002634
        k(  449) = (   0.0000000   0.4875402   0.1502461), wk =   0.0002634
        k(  450) = (   0.0000000   0.4875402   0.1639049), wk =   0.0002634
        k(  451) = (   0.0000000   0.4875402   0.1775636), wk =   0.0002634
        k(  452) = (   0.0000000   0.4875402   0.1912223), wk =   0.0002634
        k(  453) = (   0.0000000   0.4875402   0.2048811), wk =   0.0002634
        k(  454) = (   0.0000000   0.4875402   0.2185398), wk =   0.0002634
        k(  455) = (   0.0000000   0.4875402   0.2321986), wk =   0.0002634
        k(  456) = (   0.0000000   0.4875402   0.2458573), wk =   0.0002634
        k(  457) = (   0.0000000   0.4875402   0.2595160), wk =   0.0002634
        k(  458) = (   0.0000000   0.4875402   0.2731748), wk =   0.0002634
        k(  459) = (   0.0000000   0.4875402   0.2868335), wk =   0.0002634
        k(  460) = (   0.0000000   0.4875402   0.3004923), wk =   0.0002634
        k(  461) = (   0.0000000   0.5132002   0.0000000), wk =   0.0001317
        k(  462) = (   0.0000000   0.5132002   0.0136587), wk =   0.0002634
        k(  463) = (   0.0000000   0.5132002   0.0273175), wk =   0.0002634
        k(  464) = (   0.0000000   0.5132002   0.0409762), wk =   0.0002634
        k(  465) = (   0.0000000   0.5132002   0.0546350), wk =   0.0002634
        k(  466) = (   0.0000000   0.5132002   0.0682937), wk =   0.0002634
        k(  467) = (   0.0000000   0.5132002   0.0819524), wk =   0.0002634
        k(  468) = (   0.0000000   0.5132002   0.0956112), wk =   0.0002634
        k(  469) = (   0.0000000   0.5132002   0.1092699), wk =   0.0002634
        k(  470) = (   0.0000000   0.5132002   0.1229287), wk =   0.0002634
        k(  471) = (   0.0000000   0.5132002   0.1365874), wk =   0.0002634
        k(  472) = (   0.0000000   0.5132002   0.1502461), wk =   0.0002634
        k(  473) = (   0.0000000   0.5132002   0.1639049), wk =   0.0002634
        k(  474) = (   0.0000000   0.5132002   0.1775636), wk =   0.0002634
        k(  475) = (   0.0000000   0.5132002   0.1912223), wk =   0.0002634
        k(  476) = (   0.0000000   0.5132002   0.2048811), wk =   0.0002634
        k(  477) = (   0.0000000   0.5132002   0.2185398), wk =   0.0002634
        k(  478) = (   0.0000000   0.5132002   0.2321986), wk =   0.0002634
        k(  479) = (   0.0000000   0.5132002   0.2458573), wk =   0.0002634
        k(  480) = (   0.0000000   0.5132002   0.2595160), wk =   0.0002634
        k(  481) = (   0.0000000   0.5132002   0.2731748), wk =   0.0002634
        k(  482) = (   0.0000000   0.5132002   0.2868335), wk =   0.0002634
        k(  483) = (   0.0000000   0.5132002   0.3004923), wk =   0.0002634
        k(  484) = (   0.0000000   0.5388603   0.0000000), wk =   0.0001317
        k(  485) = (   0.0000000   0.5388603   0.0136587), wk =   0.0002634
        k(  486) = (   0.0000000   0.5388603   0.0273175), wk =   0.0002634
        k(  487) = (   0.0000000   0.5388603   0.0409762), wk =   0.0002634
        k(  488) = (   0.0000000   0.5388603   0.0546350), wk =   0.0002634
        k(  489) = (   0.0000000   0.5388603   0.0682937), wk =   0.0002634
        k(  490) = (   0.0000000   0.5388603   0.0819524), wk =   0.0002634
        k(  491) = (   0.0000000   0.5388603   0.0956112), wk =   0.0002634
        k(  492) = (   0.0000000   0.5388603   0.1092699), wk =   0.0002634
        k(  493) = (   0.0000000   0.5388603   0.1229287), wk =   0.0002634
        k(  494) = (   0.0000000   0.5388603   0.1365874), wk =   0.0002634
        k(  495) = (   0.0000000   0.5388603   0.1502461), wk =   0.0002634
        k(  496) = (   0.0000000   0.5388603   0.1639049), wk =   0.0002634
        k(  497) = (   0.0000000   0.5388603   0.1775636), wk =   0.0002634
        k(  498) = (   0.0000000   0.5388603   0.1912223), wk =   0.0002634
        k(  499) = (   0.0000000   0.5388603   0.2048811), wk =   0.0002634
        k(  500) = (   0.0000000   0.5388603   0.2185398), wk =   0.0002634
        k(  501) = (   0.0000000   0.5388603   0.2321986), wk =   0.0002634
        k(  502) = (   0.0000000   0.5388603   0.2458573), wk =   0.0002634
        k(  503) = (   0.0000000   0.5388603   0.2595160), wk =   0.0002634
        k(  504) = (   0.0000000   0.5388603   0.2731748), wk =   0.0002634
        k(  505) = (   0.0000000   0.5388603   0.2868335), wk =   0.0002634
        k(  506) = (   0.0000000   0.5388603   0.3004923), wk =   0.0002634
        k(  507) = (   0.0000000   0.5645203   0.0000000), wk =   0.0001317
        k(  508) = (   0.0000000   0.5645203   0.0136587), wk =   0.0002634
        k(  509) = (   0.0000000   0.5645203   0.0273175), wk =   0.0002634
        k(  510) = (   0.0000000   0.5645203   0.0409762), wk =   0.0002634
        k(  511) = (   0.0000000   0.5645203   0.0546350), wk =   0.0002634
        k(  512) = (   0.0000000   0.5645203   0.0682937), wk =   0.0002634
        k(  513) = (   0.0000000   0.5645203   0.0819524), wk =   0.0002634
        k(  514) = (   0.0000000   0.5645203   0.0956112), wk =   0.0002634
        k(  515) = (   0.0000000   0.5645203   0.1092699), wk =   0.0002634
        k(  516) = (   0.0000000   0.5645203   0.1229287), wk =   0.0002634
        k(  517) = (   0.0000000   0.5645203   0.1365874), wk =   0.0002634
        k(  518) = (   0.0000000   0.5645203   0.1502461), wk =   0.0002634
        k(  519) = (   0.0000000   0.5645203   0.1639049), wk =   0.0002634
        k(  520) = (   0.0000000   0.5645203   0.1775636), wk =   0.0002634
        k(  521) = (   0.0000000   0.5645203   0.1912223), wk =   0.0002634
        k(  522) = (   0.0000000   0.5645203   0.2048811), wk =   0.0002634
        k(  523) = (   0.0000000   0.5645203   0.2185398), wk =   0.0002634
        k(  524) = (   0.0000000   0.5645203   0.2321986), wk =   0.0002634
        k(  525) = (   0.0000000   0.5645203   0.2458573), wk =   0.0002634
        k(  526) = (   0.0000000   0.5645203   0.2595160), wk =   0.0002634
        k(  527) = (   0.0000000   0.5645203   0.2731748), wk =   0.0002634
        k(  528) = (   0.0000000   0.5645203   0.2868335), wk =   0.0002634
        k(  529) = (   0.0000000   0.5645203   0.3004923), wk =   0.0002634
        k(  530) = (   0.0222222   0.0384900   0.0000000), wk =   0.0001317
        k(  531) = (   0.0222222   0.0384900   0.0136587), wk =   0.0002634
        k(  532) = (   0.0222222   0.0384900   0.0273175), wk =   0.0002634
        k(  533) = (   0.0222222   0.0384900   0.0409762), wk =   0.0002634
        k(  534) = (   0.0222222   0.0384900   0.0546350), wk =   0.0002634
        k(  535) = (   0.0222222   0.0384900   0.0682937), wk =   0.0002634
        k(  536) = (   0.0222222   0.0384900   0.0819524), wk =   0.0002634
        k(  537) = (   0.0222222   0.0384900   0.0956112), wk =   0.0002634
        k(  538) = (   0.0222222   0.0384900   0.1092699), wk =   0.0002634
        k(  539) = (   0.0222222   0.0384900   0.1229287), wk =   0.0002634
        k(  540) = (   0.0222222   0.0384900   0.1365874), wk =   0.0002634
        k(  541) = (   0.0222222   0.0384900   0.1502461), wk =   0.0002634
        k(  542) = (   0.0222222   0.0384900   0.1639049), wk =   0.0002634
        k(  543) = (   0.0222222   0.0384900   0.1775636), wk =   0.0002634
        k(  544) = (   0.0222222   0.0384900   0.1912223), wk =   0.0002634
        k(  545) = (   0.0222222   0.0384900   0.2048811), wk =   0.0002634
        k(  546) = (   0.0222222   0.0384900   0.2185398), wk =   0.0002634
        k(  547) = (   0.0222222   0.0384900   0.2321986), wk =   0.0002634
        k(  548) = (   0.0222222   0.0384900   0.2458573), wk =   0.0002634
        k(  549) = (   0.0222222   0.0384900   0.2595160), wk =   0.0002634
        k(  550) = (   0.0222222   0.0384900   0.2731748), wk =   0.0002634
        k(  551) = (   0.0222222   0.0384900   0.2868335), wk =   0.0002634
        k(  552) = (   0.0222222   0.0384900   0.3004923), wk =   0.0002634
        k(  553) = (   0.0222222   0.0641500   0.0000000), wk =   0.0002634
        k(  554) = (   0.0222222   0.0641500   0.0136587), wk =   0.0005267
        k(  555) = (   0.0222222   0.0641500   0.0273175), wk =   0.0005267
        k(  556) = (   0.0222222   0.0641500   0.0409762), wk =   0.0005267
        k(  557) = (   0.0222222   0.0641500   0.0546350), wk =   0.0005267
        k(  558) = (   0.0222222   0.0641500   0.0682937), wk =   0.0005267
        k(  559) = (   0.0222222   0.0641500   0.0819524), wk =   0.0005267
        k(  560) = (   0.0222222   0.0641500   0.0956112), wk =   0.0005267
        k(  561) = (   0.0222222   0.0641500   0.1092699), wk =   0.0005267
        k(  562) = (   0.0222222   0.0641500   0.1229287), wk =   0.0005267
        k(  563) = (   0.0222222   0.0641500   0.1365874), wk =   0.0005267
        k(  564) = (   0.0222222   0.0641500   0.1502461), wk =   0.0005267
        k(  565) = (   0.0222222   0.0641500   0.1639049), wk =   0.0005267
        k(  566) = (   0.0222222   0.0641500   0.1775636), wk =   0.0005267
        k(  567) = (   0.0222222   0.0641500   0.1912223), wk =   0.0005267
        k(  568) = (   0.0222222   0.0641500   0.2048811), wk =   0.0005267
        k(  569) = (   0.0222222   0.0641500   0.2185398), wk =   0.0005267
        k(  570) = (   0.0222222   0.0641500   0.2321986), wk =   0.0005267
        k(  571) = (   0.0222222   0.0641500   0.2458573), wk =   0.0005267
        k(  572) = (   0.0222222   0.0641500   0.2595160), wk =   0.0005267
        k(  573) = (   0.0222222   0.0641500   0.2731748), wk =   0.0005267
        k(  574) = (   0.0222222   0.0641500   0.2868335), wk =   0.0005267
        k(  575) = (   0.0222222   0.0641500   0.3004923), wk =   0.0005267
        k(  576) = (   0.0222222   0.0898100   0.0000000), wk =   0.0002634
        k(  577) = (   0.0222222   0.0898100   0.0136587), wk =   0.0005267
        k(  578) = (   0.0222222   0.0898100   0.0273175), wk =   0.0005267
        k(  579) = (   0.0222222   0.0898100   0.0409762), wk =   0.0005267
        k(  580) = (   0.0222222   0.0898100   0.0546350), wk =   0.0005267
        k(  581) = (   0.0222222   0.0898100   0.0682937), wk =   0.0005267
        k(  582) = (   0.0222222   0.0898100   0.0819524), wk =   0.0005267
        k(  583) = (   0.0222222   0.0898100   0.0956112), wk =   0.0005267
        k(  584) = (   0.0222222   0.0898100   0.1092699), wk =   0.0005267
        k(  585) = (   0.0222222   0.0898100   0.1229287), wk =   0.0005267
        k(  586) = (   0.0222222   0.0898100   0.1365874), wk =   0.0005267
        k(  587) = (   0.0222222   0.0898100   0.1502461), wk =   0.0005267
        k(  588) = (   0.0222222   0.0898100   0.1639049), wk =   0.0005267
        k(  589) = (   0.0222222   0.0898100   0.1775636), wk =   0.0005267
        k(  590) = (   0.0222222   0.0898100   0.1912223), wk =   0.0005267
        k(  591) = (   0.0222222   0.0898100   0.2048811), wk =   0.0005267
        k(  592) = (   0.0222222   0.0898100   0.2185398), wk =   0.0005267
        k(  593) = (   0.0222222   0.0898100   0.2321986), wk =   0.0005267
        k(  594) = (   0.0222222   0.0898100   0.2458573), wk =   0.0005267
        k(  595) = (   0.0222222   0.0898100   0.2595160), wk =   0.0005267
        k(  596) = (   0.0222222   0.0898100   0.2731748), wk =   0.0005267
        k(  597) = (   0.0222222   0.0898100   0.2868335), wk =   0.0005267
        k(  598) = (   0.0222222   0.0898100   0.3004923), wk =   0.0005267
        k(  599) = (   0.0222222   0.1154701   0.0000000), wk =   0.0002634
        k(  600) = (   0.0222222   0.1154701   0.0136587), wk =   0.0005267
        k(  601) = (   0.0222222   0.1154701   0.0273175), wk =   0.0005267
        k(  602) = (   0.0222222   0.1154701   0.0409762), wk =   0.0005267
        k(  603) = (   0.0222222   0.1154701   0.0546350), wk =   0.0005267
        k(  604) = (   0.0222222   0.1154701   0.0682937), wk =   0.0005267
        k(  605) = (   0.0222222   0.1154701   0.0819524), wk =   0.0005267
        k(  606) = (   0.0222222   0.1154701   0.0956112), wk =   0.0005267
        k(  607) = (   0.0222222   0.1154701   0.1092699), wk =   0.0005267
        k(  608) = (   0.0222222   0.1154701   0.1229287), wk =   0.0005267
        k(  609) = (   0.0222222   0.1154701   0.1365874), wk =   0.0005267
        k(  610) = (   0.0222222   0.1154701   0.1502461), wk =   0.0005267
        k(  611) = (   0.0222222   0.1154701   0.1639049), wk =   0.0005267
        k(  612) = (   0.0222222   0.1154701   0.1775636), wk =   0.0005267
        k(  613) = (   0.0222222   0.1154701   0.1912223), wk =   0.0005267
        k(  614) = (   0.0222222   0.1154701   0.2048811), wk =   0.0005267
        k(  615) = (   0.0222222   0.1154701   0.2185398), wk =   0.0005267
        k(  616) = (   0.0222222   0.1154701   0.2321986), wk =   0.0005267
        k(  617) = (   0.0222222   0.1154701   0.2458573), wk =   0.0005267
        k(  618) = (   0.0222222   0.1154701   0.2595160), wk =   0.0005267
        k(  619) = (   0.0222222   0.1154701   0.2731748), wk =   0.0005267
        k(  620) = (   0.0222222   0.1154701   0.2868335), wk =   0.0005267
        k(  621) = (   0.0222222   0.1154701   0.3004923), wk =   0.0005267
        k(  622) = (   0.0222222   0.1411301   0.0000000), wk =   0.0002634
        k(  623) = (   0.0222222   0.1411301   0.0136587), wk =   0.0005267
        k(  624) = (   0.0222222   0.1411301   0.0273175), wk =   0.0005267
        k(  625) = (   0.0222222   0.1411301   0.0409762), wk =   0.0005267
        k(  626) = (   0.0222222   0.1411301   0.0546350), wk =   0.0005267
        k(  627) = (   0.0222222   0.1411301   0.0682937), wk =   0.0005267
        k(  628) = (   0.0222222   0.1411301   0.0819524), wk =   0.0005267
        k(  629) = (   0.0222222   0.1411301   0.0956112), wk =   0.0005267
        k(  630) = (   0.0222222   0.1411301   0.1092699), wk =   0.0005267
        k(  631) = (   0.0222222   0.1411301   0.1229287), wk =   0.0005267
        k(  632) = (   0.0222222   0.1411301   0.1365874), wk =   0.0005267
        k(  633) = (   0.0222222   0.1411301   0.1502461), wk =   0.0005267
        k(  634) = (   0.0222222   0.1411301   0.1639049), wk =   0.0005267
        k(  635) = (   0.0222222   0.1411301   0.1775636), wk =   0.0005267
        k(  636) = (   0.0222222   0.1411301   0.1912223), wk =   0.0005267
        k(  637) = (   0.0222222   0.1411301   0.2048811), wk =   0.0005267
        k(  638) = (   0.0222222   0.1411301   0.2185398), wk =   0.0005267
        k(  639) = (   0.0222222   0.1411301   0.2321986), wk =   0.0005267
        k(  640) = (   0.0222222   0.1411301   0.2458573), wk =   0.0005267
        k(  641) = (   0.0222222   0.1411301   0.2595160), wk =   0.0005267
        k(  642) = (   0.0222222   0.1411301   0.2731748), wk =   0.0005267
        k(  643) = (   0.0222222   0.1411301   0.2868335), wk =   0.0005267
        k(  644) = (   0.0222222   0.1411301   0.3004923), wk =   0.0005267
        k(  645) = (   0.0222222   0.1667901   0.0000000), wk =   0.0002634
        k(  646) = (   0.0222222   0.1667901   0.0136587), wk =   0.0005267
        k(  647) = (   0.0222222   0.1667901   0.0273175), wk =   0.0005267
        k(  648) = (   0.0222222   0.1667901   0.0409762), wk =   0.0005267
        k(  649) = (   0.0222222   0.1667901   0.0546350), wk =   0.0005267
        k(  650) = (   0.0222222   0.1667901   0.0682937), wk =   0.0005267
        k(  651) = (   0.0222222   0.1667901   0.0819524), wk =   0.0005267
        k(  652) = (   0.0222222   0.1667901   0.0956112), wk =   0.0005267
        k(  653) = (   0.0222222   0.1667901   0.1092699), wk =   0.0005267
        k(  654) = (   0.0222222   0.1667901   0.1229287), wk =   0.0005267
        k(  655) = (   0.0222222   0.1667901   0.1365874), wk =   0.0005267
        k(  656) = (   0.0222222   0.1667901   0.1502461), wk =   0.0005267
        k(  657) = (   0.0222222   0.1667901   0.1639049), wk =   0.0005267
        k(  658) = (   0.0222222   0.1667901   0.1775636), wk =   0.0005267
        k(  659) = (   0.0222222   0.1667901   0.1912223), wk =   0.0005267
        k(  660) = (   0.0222222   0.1667901   0.2048811), wk =   0.0005267
        k(  661) = (   0.0222222   0.1667901   0.2185398), wk =   0.0005267
        k(  662) = (   0.0222222   0.1667901   0.2321986), wk =   0.0005267
        k(  663) = (   0.0222222   0.1667901   0.2458573), wk =   0.0005267
        k(  664) = (   0.0222222   0.1667901   0.2595160), wk =   0.0005267
        k(  665) = (   0.0222222   0.1667901   0.2731748), wk =   0.0005267
        k(  666) = (   0.0222222   0.1667901   0.2868335), wk =   0.0005267
        k(  667) = (   0.0222222   0.1667901   0.3004923), wk =   0.0005267
        k(  668) = (   0.0222222   0.1924501   0.0000000), wk =   0.0002634
        k(  669) = (   0.0222222   0.1924501   0.0136587), wk =   0.0005267
        k(  670) = (   0.0222222   0.1924501   0.0273175), wk =   0.0005267
        k(  671) = (   0.0222222   0.1924501   0.0409762), wk =   0.0005267
        k(  672) = (   0.0222222   0.1924501   0.0546350), wk =   0.0005267
        k(  673) = (   0.0222222   0.1924501   0.0682937), wk =   0.0005267
        k(  674) = (   0.0222222   0.1924501   0.0819524), wk =   0.0005267
        k(  675) = (   0.0222222   0.1924501   0.0956112), wk =   0.0005267
        k(  676) = (   0.0222222   0.1924501   0.1092699), wk =   0.0005267
        k(  677) = (   0.0222222   0.1924501   0.1229287), wk =   0.0005267
        k(  678) = (   0.0222222   0.1924501   0.1365874), wk =   0.0005267
        k(  679) = (   0.0222222   0.1924501   0.1502461), wk =   0.0005267
        k(  680) = (   0.0222222   0.1924501   0.1639049), wk =   0.0005267
        k(  681) = (   0.0222222   0.1924501   0.1775636), wk =   0.0005267
        k(  682) = (   0.0222222   0.1924501   0.1912223), wk =   0.0005267
        k(  683) = (   0.0222222   0.1924501   0.2048811), wk =   0.0005267
        k(  684) = (   0.0222222   0.1924501   0.2185398), wk =   0.0005267
        k(  685) = (   0.0222222   0.1924501   0.2321986), wk =   0.0005267
        k(  686) = (   0.0222222   0.1924501   0.2458573), wk =   0.0005267
        k(  687) = (   0.0222222   0.1924501   0.2595160), wk =   0.0005267
        k(  688) = (   0.0222222   0.1924501   0.2731748), wk =   0.0005267
        k(  689) = (   0.0222222   0.1924501   0.2868335), wk =   0.0005267
        k(  690) = (   0.0222222   0.1924501   0.3004923), wk =   0.0005267
        k(  691) = (   0.0222222   0.2181101   0.0000000), wk =   0.0002634
        k(  692) = (   0.0222222   0.2181101   0.0136587), wk =   0.0005267
        k(  693) = (   0.0222222   0.2181101   0.0273175), wk =   0.0005267
        k(  694) = (   0.0222222   0.2181101   0.0409762), wk =   0.0005267
        k(  695) = (   0.0222222   0.2181101   0.0546350), wk =   0.0005267
        k(  696) = (   0.0222222   0.2181101   0.0682937), wk =   0.0005267
        k(  697) = (   0.0222222   0.2181101   0.0819524), wk =   0.0005267
        k(  698) = (   0.0222222   0.2181101   0.0956112), wk =   0.0005267
        k(  699) = (   0.0222222   0.2181101   0.1092699), wk =   0.0005267
        k(  700) = (   0.0222222   0.2181101   0.1229287), wk =   0.0005267
        k(  701) = (   0.0222222   0.2181101   0.1365874), wk =   0.0005267
        k(  702) = (   0.0222222   0.2181101   0.1502461), wk =   0.0005267
        k(  703) = (   0.0222222   0.2181101   0.1639049), wk =   0.0005267
        k(  704) = (   0.0222222   0.2181101   0.1775636), wk =   0.0005267
        k(  705) = (   0.0222222   0.2181101   0.1912223), wk =   0.0005267
        k(  706) = (   0.0222222   0.2181101   0.2048811), wk =   0.0005267
        k(  707) = (   0.0222222   0.2181101   0.2185398), wk =   0.0005267
        k(  708) = (   0.0222222   0.2181101   0.2321986), wk =   0.0005267
        k(  709) = (   0.0222222   0.2181101   0.2458573), wk =   0.0005267
        k(  710) = (   0.0222222   0.2181101   0.2595160), wk =   0.0005267
        k(  711) = (   0.0222222   0.2181101   0.2731748), wk =   0.0005267
        k(  712) = (   0.0222222   0.2181101   0.2868335), wk =   0.0005267
        k(  713) = (   0.0222222   0.2181101   0.3004923), wk =   0.0005267
        k(  714) = (   0.0222222   0.2437701   0.0000000), wk =   0.0002634
        k(  715) = (   0.0222222   0.2437701   0.0136587), wk =   0.0005267
        k(  716) = (   0.0222222   0.2437701   0.0273175), wk =   0.0005267
        k(  717) = (   0.0222222   0.2437701   0.0409762), wk =   0.0005267
        k(  718) = (   0.0222222   0.2437701   0.0546350), wk =   0.0005267
        k(  719) = (   0.0222222   0.2437701   0.0682937), wk =   0.0005267
        k(  720) = (   0.0222222   0.2437701   0.0819524), wk =   0.0005267
        k(  721) = (   0.0222222   0.2437701   0.0956112), wk =   0.0005267
        k(  722) = (   0.0222222   0.2437701   0.1092699), wk =   0.0005267
        k(  723) = (   0.0222222   0.2437701   0.1229287), wk =   0.0005267
        k(  724) = (   0.0222222   0.2437701   0.1365874), wk =   0.0005267
        k(  725) = (   0.0222222   0.2437701   0.1502461), wk =   0.0005267
        k(  726) = (   0.0222222   0.2437701   0.1639049), wk =   0.0005267
        k(  727) = (   0.0222222   0.2437701   0.1775636), wk =   0.0005267
        k(  728) = (   0.0222222   0.2437701   0.1912223), wk =   0.0005267
        k(  729) = (   0.0222222   0.2437701   0.2048811), wk =   0.0005267
        k(  730) = (   0.0222222   0.2437701   0.2185398), wk =   0.0005267
        k(  731) = (   0.0222222   0.2437701   0.2321986), wk =   0.0005267
        k(  732) = (   0.0222222   0.2437701   0.2458573), wk =   0.0005267
        k(  733) = (   0.0222222   0.2437701   0.2595160), wk =   0.0005267
        k(  734) = (   0.0222222   0.2437701   0.2731748), wk =   0.0005267
        k(  735) = (   0.0222222   0.2437701   0.2868335), wk =   0.0005267
        k(  736) = (   0.0222222   0.2437701   0.3004923), wk =   0.0005267
        k(  737) = (   0.0222222   0.2694301   0.0000000), wk =   0.0002634
        k(  738) = (   0.0222222   0.2694301   0.0136587), wk =   0.0005267
        k(  739) = (   0.0222222   0.2694301   0.0273175), wk =   0.0005267
        k(  740) = (   0.0222222   0.2694301   0.0409762), wk =   0.0005267
        k(  741) = (   0.0222222   0.2694301   0.0546350), wk =   0.0005267
        k(  742) = (   0.0222222   0.2694301   0.0682937), wk =   0.0005267
        k(  743) = (   0.0222222   0.2694301   0.0819524), wk =   0.0005267
        k(  744) = (   0.0222222   0.2694301   0.0956112), wk =   0.0005267
        k(  745) = (   0.0222222   0.2694301   0.1092699), wk =   0.0005267
        k(  746) = (   0.0222222   0.2694301   0.1229287), wk =   0.0005267
        k(  747) = (   0.0222222   0.2694301   0.1365874), wk =   0.0005267
        k(  748) = (   0.0222222   0.2694301   0.1502461), wk =   0.0005267
        k(  749) = (   0.0222222   0.2694301   0.1639049), wk =   0.0005267
        k(  750) = (   0.0222222   0.2694301   0.1775636), wk =   0.0005267
        k(  751) = (   0.0222222   0.2694301   0.1912223), wk =   0.0005267
        k(  752) = (   0.0222222   0.2694301   0.2048811), wk =   0.0005267
        k(  753) = (   0.0222222   0.2694301   0.2185398), wk =   0.0005267
        k(  754) = (   0.0222222   0.2694301   0.2321986), wk =   0.0005267
        k(  755) = (   0.0222222   0.2694301   0.2458573), wk =   0.0005267
        k(  756) = (   0.0222222   0.2694301   0.2595160), wk =   0.0005267
        k(  757) = (   0.0222222   0.2694301   0.2731748), wk =   0.0005267
        k(  758) = (   0.0222222   0.2694301   0.2868335), wk =   0.0005267
        k(  759) = (   0.0222222   0.2694301   0.3004923), wk =   0.0005267
        k(  760) = (   0.0222222   0.2950901   0.0000000), wk =   0.0002634
        k(  761) = (   0.0222222   0.2950901   0.0136587), wk =   0.0005267
        k(  762) = (   0.0222222   0.2950901   0.0273175), wk =   0.0005267
        k(  763) = (   0.0222222   0.2950901   0.0409762), wk =   0.0005267
        k(  764) = (   0.0222222   0.2950901   0.0546350), wk =   0.0005267
        k(  765) = (   0.0222222   0.2950901   0.0682937), wk =   0.0005267
        k(  766) = (   0.0222222   0.2950901   0.0819524), wk =   0.0005267
        k(  767) = (   0.0222222   0.2950901   0.0956112), wk =   0.0005267
        k(  768) = (   0.0222222   0.2950901   0.1092699), wk =   0.0005267
        k(  769) = (   0.0222222   0.2950901   0.1229287), wk =   0.0005267
        k(  770) = (   0.0222222   0.2950901   0.1365874), wk =   0.0005267
        k(  771) = (   0.0222222   0.2950901   0.1502461), wk =   0.0005267
        k(  772) = (   0.0222222   0.2950901   0.1639049), wk =   0.0005267
        k(  773) = (   0.0222222   0.2950901   0.1775636), wk =   0.0005267
        k(  774) = (   0.0222222   0.2950901   0.1912223), wk =   0.0005267
        k(  775) = (   0.0222222   0.2950901   0.2048811), wk =   0.0005267
        k(  776) = (   0.0222222   0.2950901   0.2185398), wk =   0.0005267
        k(  777) = (   0.0222222   0.2950901   0.2321986), wk =   0.0005267
        k(  778) = (   0.0222222   0.2950901   0.2458573), wk =   0.0005267
        k(  779) = (   0.0222222   0.2950901   0.2595160), wk =   0.0005267
        k(  780) = (   0.0222222   0.2950901   0.2731748), wk =   0.0005267
        k(  781) = (   0.0222222   0.2950901   0.2868335), wk =   0.0005267
        k(  782) = (   0.0222222   0.2950901   0.3004923), wk =   0.0005267
        k(  783) = (   0.0222222   0.3207501   0.0000000), wk =   0.0002634
        k(  784) = (   0.0222222   0.3207501   0.0136587), wk =   0.0005267
        k(  785) = (   0.0222222   0.3207501   0.0273175), wk =   0.0005267
        k(  786) = (   0.0222222   0.3207501   0.0409762), wk =   0.0005267
        k(  787) = (   0.0222222   0.3207501   0.0546350), wk =   0.0005267
        k(  788) = (   0.0222222   0.3207501   0.0682937), wk =   0.0005267
        k(  789) = (   0.0222222   0.3207501   0.0819524), wk =   0.0005267
        k(  790) = (   0.0222222   0.3207501   0.0956112), wk =   0.0005267
        k(  791) = (   0.0222222   0.3207501   0.1092699), wk =   0.0005267
        k(  792) = (   0.0222222   0.3207501   0.1229287), wk =   0.0005267
        k(  793) = (   0.0222222   0.3207501   0.1365874), wk =   0.0005267
        k(  794) = (   0.0222222   0.3207501   0.1502461), wk =   0.0005267
        k(  795) = (   0.0222222   0.3207501   0.1639049), wk =   0.0005267
        k(  796) = (   0.0222222   0.3207501   0.1775636), wk =   0.0005267
        k(  797) = (   0.0222222   0.3207501   0.1912223), wk =   0.0005267
        k(  798) = (   0.0222222   0.3207501   0.2048811), wk =   0.0005267
        k(  799) = (   0.0222222   0.3207501   0.2185398), wk =   0.0005267
        k(  800) = (   0.0222222   0.3207501   0.2321986), wk =   0.0005267
        k(  801) = (   0.0222222   0.3207501   0.2458573), wk =   0.0005267
        k(  802) = (   0.0222222   0.3207501   0.2595160), wk =   0.0005267
        k(  803) = (   0.0222222   0.3207501   0.2731748), wk =   0.0005267
        k(  804) = (   0.0222222   0.3207501   0.2868335), wk =   0.0005267
        k(  805) = (   0.0222222   0.3207501   0.3004923), wk =   0.0005267
        k(  806) = (   0.0222222   0.3464102   0.0000000), wk =   0.0002634
        k(  807) = (   0.0222222   0.3464102   0.0136587), wk =   0.0005267
        k(  808) = (   0.0222222   0.3464102   0.0273175), wk =   0.0005267
        k(  809) = (   0.0222222   0.3464102   0.0409762), wk =   0.0005267
        k(  810) = (   0.0222222   0.3464102   0.0546350), wk =   0.0005267
        k(  811) = (   0.0222222   0.3464102   0.0682937), wk =   0.0005267
        k(  812) = (   0.0222222   0.3464102   0.0819524), wk =   0.0005267
        k(  813) = (   0.0222222   0.3464102   0.0956112), wk =   0.0005267
        k(  814) = (   0.0222222   0.3464102   0.1092699), wk =   0.0005267
        k(  815) = (   0.0222222   0.3464102   0.1229287), wk =   0.0005267
        k(  816) = (   0.0222222   0.3464102   0.1365874), wk =   0.0005267
        k(  817) = (   0.0222222   0.3464102   0.1502461), wk =   0.0005267
        k(  818) = (   0.0222222   0.3464102   0.1639049), wk =   0.0005267
        k(  819) = (   0.0222222   0.3464102   0.1775636), wk =   0.0005267
        k(  820) = (   0.0222222   0.3464102   0.1912223), wk =   0.0005267
        k(  821) = (   0.0222222   0.3464102   0.2048811), wk =   0.0005267
        k(  822) = (   0.0222222   0.3464102   0.2185398), wk =   0.0005267
        k(  823) = (   0.0222222   0.3464102   0.2321986), wk =   0.0005267
        k(  824) = (   0.0222222   0.3464102   0.2458573), wk =   0.0005267
        k(  825) = (   0.0222222   0.3464102   0.2595160), wk =   0.0005267
        k(  826) = (   0.0222222   0.3464102   0.2731748), wk =   0.0005267
        k(  827) = (   0.0222222   0.3464102   0.2868335), wk =   0.0005267
        k(  828) = (   0.0222222   0.3464102   0.3004923), wk =   0.0005267
        k(  829) = (   0.0222222   0.3720702   0.0000000), wk =   0.0002634
        k(  830) = (   0.0222222   0.3720702   0.0136587), wk =   0.0005267
        k(  831) = (   0.0222222   0.3720702   0.0273175), wk =   0.0005267
        k(  832) = (   0.0222222   0.3720702   0.0409762), wk =   0.0005267
        k(  833) = (   0.0222222   0.3720702   0.0546350), wk =   0.0005267
        k(  834) = (   0.0222222   0.3720702   0.0682937), wk =   0.0005267
        k(  835) = (   0.0222222   0.3720702   0.0819524), wk =   0.0005267
        k(  836) = (   0.0222222   0.3720702   0.0956112), wk =   0.0005267
        k(  837) = (   0.0222222   0.3720702   0.1092699), wk =   0.0005267
        k(  838) = (   0.0222222   0.3720702   0.1229287), wk =   0.0005267
        k(  839) = (   0.0222222   0.3720702   0.1365874), wk =   0.0005267
        k(  840) = (   0.0222222   0.3720702   0.1502461), wk =   0.0005267
        k(  841) = (   0.0222222   0.3720702   0.1639049), wk =   0.0005267
        k(  842) = (   0.0222222   0.3720702   0.1775636), wk =   0.0005267
        k(  843) = (   0.0222222   0.3720702   0.1912223), wk =   0.0005267
        k(  844) = (   0.0222222   0.3720702   0.2048811), wk =   0.0005267
        k(  845) = (   0.0222222   0.3720702   0.2185398), wk =   0.0005267
        k(  846) = (   0.0222222   0.3720702   0.2321986), wk =   0.0005267
        k(  847) = (   0.0222222   0.3720702   0.2458573), wk =   0.0005267
        k(  848) = (   0.0222222   0.3720702   0.2595160), wk =   0.0005267
        k(  849) = (   0.0222222   0.3720702   0.2731748), wk =   0.0005267
        k(  850) = (   0.0222222   0.3720702   0.2868335), wk =   0.0005267
        k(  851) = (   0.0222222   0.3720702   0.3004923), wk =   0.0005267
        k(  852) = (   0.0222222   0.3977302   0.0000000), wk =   0.0002634
        k(  853) = (   0.0222222   0.3977302   0.0136587), wk =   0.0005267
        k(  854) = (   0.0222222   0.3977302   0.0273175), wk =   0.0005267
        k(  855) = (   0.0222222   0.3977302   0.0409762), wk =   0.0005267
        k(  856) = (   0.0222222   0.3977302   0.0546350), wk =   0.0005267
        k(  857) = (   0.0222222   0.3977302   0.0682937), wk =   0.0005267
        k(  858) = (   0.0222222   0.3977302   0.0819524), wk =   0.0005267
        k(  859) = (   0.0222222   0.3977302   0.0956112), wk =   0.0005267
        k(  860) = (   0.0222222   0.3977302   0.1092699), wk =   0.0005267
        k(  861) = (   0.0222222   0.3977302   0.1229287), wk =   0.0005267
        k(  862) = (   0.0222222   0.3977302   0.1365874), wk =   0.0005267
        k(  863) = (   0.0222222   0.3977302   0.1502461), wk =   0.0005267
        k(  864) = (   0.0222222   0.3977302   0.1639049), wk =   0.0005267
        k(  865) = (   0.0222222   0.3977302   0.1775636), wk =   0.0005267
        k(  866) = (   0.0222222   0.3977302   0.1912223), wk =   0.0005267
        k(  867) = (   0.0222222   0.3977302   0.2048811), wk =   0.0005267
        k(  868) = (   0.0222222   0.3977302   0.2185398), wk =   0.0005267
        k(  869) = (   0.0222222   0.3977302   0.2321986), wk =   0.0005267
        k(  870) = (   0.0222222   0.3977302   0.2458573), wk =   0.0005267
        k(  871) = (   0.0222222   0.3977302   0.2595160), wk =   0.0005267
        k(  872) = (   0.0222222   0.3977302   0.2731748), wk =   0.0005267
        k(  873) = (   0.0222222   0.3977302   0.2868335), wk =   0.0005267
        k(  874) = (   0.0222222   0.3977302   0.3004923), wk =   0.0005267
        k(  875) = (   0.0222222   0.4233902   0.0000000), wk =   0.0002634
        k(  876) = (   0.0222222   0.4233902   0.0136587), wk =   0.0005267
        k(  877) = (   0.0222222   0.4233902   0.0273175), wk =   0.0005267
        k(  878) = (   0.0222222   0.4233902   0.0409762), wk =   0.0005267
        k(  879) = (   0.0222222   0.4233902   0.0546350), wk =   0.0005267
        k(  880) = (   0.0222222   0.4233902   0.0682937), wk =   0.0005267
        k(  881) = (   0.0222222   0.4233902   0.0819524), wk =   0.0005267
        k(  882) = (   0.0222222   0.4233902   0.0956112), wk =   0.0005267
        k(  883) = (   0.0222222   0.4233902   0.1092699), wk =   0.0005267
        k(  884) = (   0.0222222   0.4233902   0.1229287), wk =   0.0005267
        k(  885) = (   0.0222222   0.4233902   0.1365874), wk =   0.0005267
        k(  886) = (   0.0222222   0.4233902   0.1502461), wk =   0.0005267
        k(  887) = (   0.0222222   0.4233902   0.1639049), wk =   0.0005267
        k(  888) = (   0.0222222   0.4233902   0.1775636), wk =   0.0005267
        k(  889) = (   0.0222222   0.4233902   0.1912223), wk =   0.0005267
        k(  890) = (   0.0222222   0.4233902   0.2048811), wk =   0.0005267
        k(  891) = (   0.0222222   0.4233902   0.2185398), wk =   0.0005267
        k(  892) = (   0.0222222   0.4233902   0.2321986), wk =   0.0005267
        k(  893) = (   0.0222222   0.4233902   0.2458573), wk =   0.0005267
        k(  894) = (   0.0222222   0.4233902   0.2595160), wk =   0.0005267
        k(  895) = (   0.0222222   0.4233902   0.2731748), wk =   0.0005267
        k(  896) = (   0.0222222   0.4233902   0.2868335), wk =   0.0005267
        k(  897) = (   0.0222222   0.4233902   0.3004923), wk =   0.0005267
[...]
     1.0000   1.0000   1.0000   1.0000   1.0000   1.0000   1.0000   1.0000
     1.0000   1.0000   1.0000   1.0000   1.0000   1.0000   1.0000   1.0000
     1.0000   1.0000

          k = 0.3111 0.5645 0.1093 ( 14758 PWs)   bands (ev):

    -4.3465  -4.3314  -2.9135  -2.7737  -2.7625  -2.7205  -2.6795  -2.6715
    -2.6581  -2.6327  -0.9197  -0.8096   4.9228   5.0574   5.5670   7.6691
     7.9984   8.2518

     occupation numbers 
     1.0000   1.0000   1.0000   1.0000   1.0000   1.0000   1.0000   1.0000
     1.0000   1.0000   1.0000   1.0000   1.0000   1.0000   1.0000   1.0000
     1.0000   1.0000

          k = 0.3111 0.5645 0.1229 ( 14751 PWs)   bands (ev):

    -4.3433  -4.3289  -2.9083  -2.7788  -2.7683  -2.7216  -2.6761  -2.6684
    -2.6574  -2.6372  -0.9166  -0.8113   4.8701   4.9999   5.6021   7.6048
     8.1011   8.3456

     occupation numbers 
     1.0000   1.0000   1.0000   1.0000   1.0000   1.0000   1.0000   1.0000
     1.0000   1.0000   1.0000   1.0000   1.0000   1.0000   1.0000   1.0000
     1.0000   1.0000

          k = 0.3111 0.5645 0.1366 ( 14744 PWs)   bands (ev):

    -4.3399  -4.3262  -2.9026  -2.7838  -2.7739  -2.7232  -2.6734  -2.6657
    -2.6563  -2.6417  -0.9133  -0.8133   4.8176   4.9417   5.6424   7.5352
     8.2070   8.4413

     occupation numbers 
     1.0000   1.0000   1.0000   1.0000   1.0000   1.0000   1.0000   1.0000
     1.0000   1.0000   1.0000   1.0000   1.0000   1.0000   1.0000   1.0000
     1.0000   1.0000

          k = 0.3111 0.5645 0.1502 ( 14730 PWs)   bands (ev):

    -4.3363  -4.3236  -2.8964  -2.7887  -2.7794  -2.7252  -2.6714  -2.6633
    -2.6548  -2.6461  -0.9097  -0.8155   4.7666   4.8841   5.6877   7.4611
     8.3142   8.5372

     occupation numbers 
     1.0000   1.0000   1.0000   1.0000   1.0000   1.0000   1.0000   1.0000
     1.0000   1.0000   1.0000   1.0000   1.0000   1.0000   1.0000   1.0000
     1.0000   1.0000

          k = 0.3111 0.5645 0.1639 ( 14736 PWs)   bands (ev):

    -4.3328  -4.3209  -2.8897  -2.7933  -2.7847  -2.7278  -2.6702  -2.6613
    -2.6532  -2.6497  -0.9059  -0.8180   4.7179   4.8280   5.7375   7.3832
     8.4211   8.6316

     occupation numbers 
     1.0000   1.0000   1.0000   1.0000   1.0000   1.0000   1.0000   1.0000
     1.0000   1.0000   1.0000   1.0000   1.0000   1.0000   1.0000   1.0000
     1.0000   1.0000

          k = 0.3111 0.5645 0.1776 ( 14748 PWs)   bands (ev):

    -4.3292  -4.3183  -2.8826  -2.7976  -2.7897  -2.7312  -2.6697  -2.6604
    -2.6535  -2.6500  -0.9018  -0.8207   4.6723   4.7743   5.7917   7.3021
     8.5261   8.7227

     occupation numbers 
     1.0000   1.0000   1.0000   1.0000   1.0000   1.0000   1.0000   1.0000
     1.0000   1.0000   1.0000   1.0000   1.0000   1.0000   1.0000   1.0000
     1.0000   1.0000

          k = 0.3111 0.5645 0.1912 ( 14746 PWs)   bands (ev):

    -4.3257  -4.3158  -2.8750  -2.8015  -2.7944  -2.7353  -2.6696  -2.6618
    -2.6531  -2.6483  -0.8975  -0.8236   4.6304   4.7236   5.8499   7.2184
     8.6276   8.8090

     occupation numbers 
     1.0000   1.0000   1.0000   1.0000   1.0000   1.0000   1.0000   1.0000
     1.0000   1.0000   1.0000   1.0000   1.0000   1.0000   1.0000   1.0000
     1.0000   1.0000

          k = 0.3111 0.5645 0.2049 ( 14743 PWs)   bands (ev):

    -4.3223  -4.3135  -2.8671  -2.8051  -2.7988  -2.7403  -2.6698  -2.6643
    -2.6514  -2.6466  -0.8931  -0.8268   4.5928   4.6766   5.9120   7.1328
     8.7242   8.8889

     occupation numbers 
     1.0000   1.0000   1.0000   1.0000   1.0000   1.0000   1.0000   1.0000
     1.0000   1.0000   1.0000   1.0000   1.0000   1.0000   1.0000   1.0000
     1.0000   1.0000

          k = 0.3111 0.5645 0.2185 ( 14745 PWs)   bands (ev):

    -4.3191  -4.3114  -2.8588  -2.8083  -2.8027  -2.7462  -2.6701  -2.6667
    -2.6495  -2.6451  -0.8885  -0.8303   4.5599   4.6337   5.9777   7.0457
     8.8144   8.9610

     occupation numbers 
     1.0000   1.0000   1.0000   1.0000   1.0000   1.0000   1.0000   1.0000
     1.0000   1.0000   1.0000   1.0000   1.0000   1.0000   1.0000   1.0000
     1.0000   1.0000

          k = 0.3111 0.5645 0.2322 ( 14743 PWs)   bands (ev):

    -4.3162  -4.3096  -2.8502  -2.8110  -2.8063  -2.7528  -2.6705  -2.6687
    -2.6476  -2.6438  -0.8838  -0.8339   4.5320   4.5954   6.0469   6.9577
     8.8968   9.0238

     occupation numbers 
     1.0000   1.0000   1.0000   1.0000   1.0000   1.0000   1.0000   1.0000
     1.0000   1.0000   1.0000   1.0000   1.0000   1.0000   1.0000   1.0000
     1.0000   1.0000

          k = 0.3111 0.5645 0.2459 ( 14739 PWs)   bands (ev):

    -4.3135  -4.3081  -2.8414  -2.8132  -2.8093  -2.7602  -2.6710  -2.6702
    -2.6459  -2.6427  -0.8790  -0.8378   4.5095   4.5619   6.1192   6.8693
     8.9700   9.0761

     occupation numbers 
     1.0000   1.0000   1.0000   1.0000   1.0000   1.0000   1.0000   1.0000
     1.0000   1.0000   1.0000   1.0000   1.0000   1.0000   1.0000   1.0000
     1.0000   1.0000

          k = 0.3111 0.5645 0.2595 ( 14744 PWs)   bands (ev):

    -4.3113  -4.3070  -2.8326  -2.8149  -2.8118  -2.7681  -2.6715  -2.6712
    -2.6445  -2.6419  -0.8742  -0.8419   4.4924   4.5335   6.1945   6.7809
     9.0329   9.1168

     occupation numbers 
     1.0000   1.0000   1.0000   1.0000   1.0000   1.0000   1.0000   1.0000
     1.0000   1.0000   1.0000   1.0000   1.0000   1.0000   1.0000   1.0000
     1.0000   1.0000

          k = 0.3111 0.5645 0.2732 ( 14754 PWs)   bands (ev):

    -4.3094  -4.3063  -2.8241  -2.8159  -2.8133  -2.7766  -2.6720  -2.6718
    -2.6433  -2.6414  -0.8694  -0.8461   4.4810   4.5106   6.2724   6.6929
     9.0843   9.1450

     occupation numbers 
     1.0000   1.0000   1.0000   1.0000   1.0000   1.0000   1.0000   1.0000
     1.0000   1.0000   1.0000   1.0000   1.0000   1.0000   1.0000   1.0000
     1.0000   1.0000

          k = 0.3111 0.5645 0.2868 ( 14755 PWs)   bands (ev):

    -4.3079  -4.3060  -2.8187  -2.8165  -2.8111  -2.7853  -2.6723  -2.6722
    -2.6424  -2.6412  -0.8645  -0.8506   4.4753   4.4932   6.3528   6.6057
     9.1233   9.1600

     occupation numbers 
     1.0000   1.0000   1.0000   1.0000   1.0000   1.0000   1.0000   1.0000
     1.0000   1.0000   1.0000   1.0000   1.0000   1.0000   1.0000   1.0000
     1.0000   1.0000

          k = 0.3111 0.5645 0.3005 ( 14753 PWs)   bands (ev):

    -4.3068  -4.3062  -2.8178  -2.8172  -2.8032  -2.7943  -2.6725  -2.6724
    -2.6417  -2.6413  -0.8598  -0.8551   4.4755   4.4815   6.4354   6.5198
     9.1491   9.1614

     occupation numbers 
     1.0000   1.0000   1.0000   1.0000   1.0000   1.0000   1.0000   1.0000
     1.0000   1.0000   1.0000   1.0000   1.0000   1.0000   1.0000   1.0000
     1.0000   1.0000

          k = 0.3333 0.5774 0.0000 ( 14724 PWs)   bands (ev):

    -4.3506  -4.3506  -2.9340  -2.7317  -2.7317  -2.7177  -2.7023  -2.7023
    -2.6598  -2.6135  -0.8621  -0.8621   5.2987   5.2987   5.3668   7.6612
     7.6612   7.9161

     occupation numbers 
     1.0000   1.0000   1.0000   1.0000   1.0000   1.0000   1.0000   1.0000
     1.0000   1.0000   1.0000   1.0000   1.0000   1.0000   1.0000   1.0000
     1.0000   1.0000

          k = 0.3333 0.5774 0.0137 ( 14757 PWs)   bands (ev):

    -4.3504  -4.3504  -2.9337  -2.7329  -2.7329  -2.7177  -2.7013  -2.7013
    -2.6598  -2.6139  -0.8621  -0.8621   5.2927   5.2927   5.3691   7.6700
     7.6700   7.9116

     occupation numbers 
     1.0000   1.0000   1.0000   1.0000   1.0000   1.0000   1.0000   1.0000
     1.0000   1.0000   1.0000   1.0000   1.0000   1.0000   1.0000   1.0000
     1.0000   1.0000

          k = 0.3333 0.5774 0.0273 ( 14739 PWs)   bands (ev):

    -4.3497  -4.3497  -2.9328  -2.7360  -2.7360  -2.7178  -2.6986  -2.6986
    -2.6599  -2.6149  -0.8619  -0.8619   5.2752   5.2752   5.3763   7.6960
     7.6960   7.8983

     occupation numbers 
     1.0000   1.0000   1.0000   1.0000   1.0000   1.0000   1.0000   1.0000
     1.0000   1.0000   1.0000   1.0000   1.0000   1.0000   1.0000   1.0000
     1.0000   1.0000

          k = 0.3333 0.5774 0.0410 ( 14742 PWs)   bands (ev):

    -4.3487  -4.3487  -2.9312  -2.7403  -2.7403  -2.7179  -2.6948  -2.6948
    -2.6601  -2.6165  -0.8616  -0.8616   5.2472   5.2472   5.3882   7.7381
     7.7381   7.8762

     occupation numbers 
     1.0000   1.0000   1.0000   1.0000   1.0000   1.0000   1.0000   1.0000
     1.0000   1.0000   1.0000   1.0000   1.0000   1.0000   1.0000   1.0000
     1.0000   1.0000

          k = 0.3333 0.5774 0.0546 ( 14763 PWs)   bands (ev):

    -4.3473  -4.3473  -2.9290  -2.7452  -2.7452  -2.7181  -2.6907  -2.6907
    -2.6603  -2.6188  -0.8613  -0.8613   5.2100   5.2100   5.4048   7.7947
     7.7947   7.8458

     occupation numbers 
     1.0000   1.0000   1.0000   1.0000   1.0000   1.0000   1.0000   1.0000
     1.0000   1.0000   1.0000   1.0000   1.0000   1.0000   1.0000   1.0000
     1.0000   1.0000

          k = 0.3333 0.5774 0.0683 ( 14772 PWs)   bands (ev):

    -4.3455  -4.3455  -2.9261  -2.7506  -2.7506  -2.7184  -2.6864  -2.6864
    -2.6607  -2.6217  -0.8608  -0.8608   5.1654   5.1654   5.4262   7.8073
     7.8639   7.8639

     occupation numbers 
     1.0000   1.0000   1.0000   1.0000   1.0000   1.0000   1.0000   1.0000
     1.0000   1.0000   1.0000   1.0000   1.0000   1.0000   1.0000   1.0000
     1.0000   1.0000

          k = 0.3333 0.5774 0.0820 ( 14772 PWs)   bands (ev):

    -4.3433  -4.3433  -2.9227  -2.7561  -2.7561  -2.7189  -2.6820  -2.6820
    -2.6611  -2.6252  -0.8602  -0.8602   5.1151   5.1151   5.4521   7.7614
     7.9436   7.9436

     occupation numbers 
     1.0000   1.0000   1.0000   1.0000   1.0000   1.0000   1.0000   1.0000
     1.0000   1.0000   1.0000   1.0000   1.0000   1.0000   1.0000   1.0000
     1.0000   1.0000

          k = 0.3333 0.5774 0.0956 ( 14757 PWs)   bands (ev):

    -4.3409  -4.3409  -2.9186  -2.7617  -2.7617  -2.7195  -2.6778  -2.6778
    -2.6615  -2.6291  -0.8596  -0.8596   5.0610   5.0610   5.4826   7.7085
     8.0315   8.0315

     occupation numbers 
     1.0000   1.0000   1.0000   1.0000   1.0000   1.0000   1.0000   1.0000
     1.0000   1.0000   1.0000   1.0000   1.0000   1.0000   1.0000   1.0000
     1.0000   1.0000

          k = 0.3333 0.5774 0.1093 ( 14757 PWs)   bands (ev):

    -4.3382  -4.3382  -2.9140  -2.7672  -2.7672  -2.7203  -2.6737  -2.6737
    -2.6620  -2.6333  -0.8589  -0.8589   5.0046   5.0046   5.5176   7.6492
     8.1258   8.1258

     occupation numbers 
     1.0000   1.0000   1.0000   1.0000   1.0000   1.0000   1.0000   1.0000
     1.0000   1.0000   1.0000   1.0000   1.0000   1.0000   1.0000   1.0000
     1.0000   1.0000

          k = 0.3333 0.5774 0.1229 ( 14739 PWs)   bands (ev):

    -4.3354  -4.3354  -2.9088  -2.7727  -2.7727  -2.7215  -2.6698  -2.6698
    -2.6626  -2.6379  -0.8582  -0.8582   4.9473   4.9473   5.5570   7.5841
     8.2243   8.2243

     occupation numbers 
     1.0000   1.0000   1.0000   1.0000   1.0000   1.0000   1.0000   1.0000
     1.0000   1.0000   1.0000   1.0000   1.0000   1.0000   1.0000   1.0000
     1.0000   1.0000

          k = 0.3333 0.5774 0.1366 ( 14733 PWs)   bands (ev):

    -4.3324  -4.3324  -2.9031  -2.7781  -2.7781  -2.7230  -2.6661  -2.6661
    -2.6632  -2.6426  -0.8574  -0.8574   4.8903   4.8903   5.6007   7.5140
     8.3254   8.3254

     occupation numbers 
     1.0000   1.0000   1.0000   1.0000   1.0000   1.0000   1.0000   1.0000
     1.0000   1.0000   1.0000   1.0000   1.0000   1.0000   1.0000   1.0000
     1.0000   1.0000

          k = 0.3333 0.5774 0.1502 ( 14724 PWs)   bands (ev):

    -4.3293  -4.3293  -2.8969  -2.7833  -2.7833  -2.7250  -2.6639  -2.6627
    -2.6627  -2.6473  -0.8566  -0.8566   4.8345   4.8345   5.6486   7.4395
     8.4272   8.4272

     occupation numbers 
     1.0000   1.0000   1.0000   1.0000   1.0000   1.0000   1.0000   1.0000
     1.0000   1.0000   1.0000   1.0000   1.0000   1.0000   1.0000   1.0000
     1.0000   1.0000

          k = 0.3333 0.5774 0.1639 ( 14724 PWs)   bands (ev):

    -4.3262  -4.3262  -2.8901  -2.7883  -2.7883  -2.7277  -2.6646  -2.6595
    -2.6595  -2.6518  -0.8558  -0.8558   4.7810   4.7810   5.7006   7.3611
     8.5281   8.5281

     occupation numbers 
     1.0000   1.0000   1.0000   1.0000   1.0000   1.0000   1.0000   1.0000
     1.0000   1.0000   1.0000   1.0000   1.0000   1.0000   1.0000   1.0000
     1.0000   1.0000

          k = 0.3333 0.5774 0.1776 ( 14733 PWs)   bands (ev):

    -4.3231  -4.3231  -2.8829  -2.7929  -2.7929  -2.7311  -2.6653  -2.6566
    -2.6566  -2.6561  -0.8549  -0.8549   4.7305   4.7305   5.7565   7.2796
     8.6263   8.6263

     occupation numbers 
     1.0000   1.0000   1.0000   1.0000   1.0000   1.0000   1.0000   1.0000
     1.0000   1.0000   1.0000   1.0000   1.0000   1.0000   1.0000   1.0000
     1.0000   1.0000

          k = 0.3333 0.5774 0.1912 ( 14742 PWs)   bands (ev):

    -4.3201  -4.3201  -2.8753  -2.7973  -2.7973  -2.7352  -2.6661  -2.6599
    -2.6539  -2.6539  -0.8542  -0.8542   4.6835   4.6835   5.8162   7.1955
     8.7205   8.7205

     occupation numbers 
     1.0000   1.0000   1.0000   1.0000   1.0000   1.0000   1.0000   1.0000
     1.0000   1.0000   1.0000   1.0000   1.0000   1.0000   1.0000   1.0000
     1.0000   1.0000

          k = 0.3333 0.5774 0.2049 ( 14742 PWs)   bands (ev):

    -4.3172  -4.3172  -2.8673  -2.8013  -2.8013  -2.7403  -2.6669  -2.6631
    -2.6515  -2.6515  -0.8534  -0.8534   4.6406   4.6406   5.8796   7.1095
     8.8090   8.8090

     occupation numbers 
     1.0000   1.0000   1.0000   1.0000   1.0000   1.0000   1.0000   1.0000
     1.0000   1.0000   1.0000   1.0000   1.0000   1.0000   1.0000   1.0000
     1.0000   1.0000

          k = 0.3333 0.5774 0.2185 ( 14745 PWs)   bands (ev):

    -4.3146  -4.3146  -2.8590  -2.8048  -2.8048  -2.7462  -2.6676  -2.6658
    -2.6495  -2.6495  -0.8527  -0.8527   4.6022   4.6022   5.9464   7.0220
     8.8904   8.8904

     occupation numbers 
     1.0000   1.0000   1.0000   1.0000   1.0000   1.0000   1.0000   1.0000
     1.0000   1.0000   1.0000   1.0000   1.0000   1.0000   1.0000   1.0000
     1.0000   1.0000

          k = 0.3333 0.5774 0.2322 ( 14766 PWs)   bands (ev):

    -4.3123  -4.3123  -2.8503  -2.8080  -2.8080  -2.7529  -2.6683  -2.6678
    -2.6477  -2.6477  -0.8521  -0.8521   4.5686   4.5686   6.0164   6.9336
     8.9632   8.9632

     occupation numbers 
     1.0000   1.0000   1.0000   1.0000   1.0000   1.0000   1.0000   1.0000
     1.0000   1.0000   1.0000   1.0000   1.0000   1.0000   1.0000   1.0000
     1.0000   1.0000

          k = 0.3333 0.5774 0.2459 ( 14745 PWs)   bands (ev):

    -4.3102  -4.3102  -2.8414  -2.8107  -2.8107  -2.7604  -2.6693  -2.6691
    -2.6462  -2.6462  -0.8516  -0.8516   4.5403   4.5403   6.0896   6.8447
     9.0262   9.0262

     occupation numbers 
     1.0000   1.0000   1.0000   1.0000   1.0000   1.0000   1.0000   1.0000
     1.0000   1.0000   1.0000   1.0000   1.0000   1.0000   1.0000   1.0000
     1.0000   1.0000

          k = 0.3333 0.5774 0.2595 ( 14751 PWs)   bands (ev):

    -4.3085  -4.3085  -2.8323  -2.8128  -2.8128  -2.7684  -2.6704  -2.6697
    -2.6450  -2.6450  -0.8511  -0.8511   4.5173   4.5173   6.1656   6.7558
     9.0782   9.0782

     occupation numbers 
     1.0000   1.0000   1.0000   1.0000   1.0000   1.0000   1.0000   1.0000
     1.0000   1.0000   1.0000   1.0000   1.0000   1.0000   1.0000   1.0000
     1.0000   1.0000

          k = 0.3333 0.5774 0.2732 ( 14760 PWs)   bands (ev):

    -4.3072  -4.3072  -2.8230  -2.8145  -2.8145  -2.7770  -2.6710  -2.6703
    -2.6441  -2.6441  -0.8508  -0.8508   4.5000   4.5000   6.2442   6.6674
     9.1181   9.1181

     occupation numbers 
     1.0000   1.0000   1.0000   1.0000   1.0000   1.0000   1.0000   1.0000
     1.0000   1.0000   1.0000   1.0000   1.0000   1.0000   1.0000   1.0000
     1.0000   1.0000

          k = 0.3333 0.5774 0.2868 ( 14766 PWs)   bands (ev):

    -4.3063  -4.3063  -2.8156  -2.8156  -2.8137  -2.7859  -2.6713  -2.6708
    -2.6434  -2.6434  -0.8506  -0.8506   4.4883   4.4883   6.3252   6.5798
     9.1452   9.1452

     occupation numbers 
     1.0000   1.0000   1.0000   1.0000   1.0000   1.0000   1.0000   1.0000
     1.0000   1.0000   1.0000   1.0000   1.0000   1.0000   1.0000   1.0000
     1.0000   1.0000

          k = 0.3333 0.5774 0.3005 ( 14772 PWs)   bands (ev):

    -4.3059  -4.3059  -2.8161  -2.8161  -2.8043  -2.7950  -2.6713  -2.6711
    -2.6431  -2.6431  -0.8505  -0.8505   4.4825   4.4825   6.4084   6.4933
     9.1589   9.1589

     occupation numbers 
     1.0000   1.0000   1.0000   1.0000   1.0000   1.0000   1.0000   1.0000
     1.0000   1.0000   1.0000   1.0000   1.0000   1.0000   1.0000   1.0000
     1.0000   1.0000

     highest occupied level (ev):    10.6184

!    total energy              =    -347.51875586 Ry
     estimated scf accuracy    <       0.00000033 Ry

     The total energy is the sum of the following terms:
     one-electron contribution =    -105.66885788 Ry
     hartree contribution      =      87.58431990 Ry
     xc contribution           =     -96.27739098 Ry
     ewald contribution        =    -233.15682690 Ry

     convergence has been achieved in  18 iterations

     Writing output data file ../tmp/GaN_exc1.save/
 
     init_run     :     85.71s CPU     87.72s WALL (       1 calls)
     electrons    :   3270.38s CPU   3313.17s WALL (       1 calls)

     Called by init_run:
     wfcinit      :     83.91s CPU     85.82s WALL (       1 calls)
     wfcinit:atom :      1.95s CPU      1.96s WALL (    4416 calls)
     wfcinit:wfcr :     70.12s CPU     71.05s WALL (    4416 calls)
     potinit      :      0.16s CPU      0.16s WALL (       1 calls)
     hinit0       :      0.31s CPU      0.35s WALL (       1 calls)

     Called by electrons:
     c_bands      :   2819.12s CPU   2852.76s WALL (      18 calls)
     sum_band     :    450.69s CPU    459.76s WALL (      18 calls)
     v_of_rho     :      0.41s CPU      0.43s WALL (      19 calls)
     v_h          :      0.01s CPU      0.02s WALL (      19 calls)
     v_xc         :      0.40s CPU      0.42s WALL (      19 calls)
     mix_rho      :      0.13s CPU      0.13s WALL (      18 calls)

     Called by c_bands:
     init_us_2    :    130.76s CPU    135.66s WALL (  163392 calls)
     cegterg      :   2379.48s CPU   2407.99s WALL (   79488 calls)

     Called by sum_band:
     sum_band:wei :      0.01s CPU      0.01s WALL (      18 calls)
     sum_band:loo :    450.61s CPU    459.68s WALL (      18 calls)
     sum_band:buf :     14.48s CPU     15.57s WALL (   79488 calls)
     sum_band:ini :     64.02s CPU     66.94s WALL (   79488 calls)

     Called by *egterg:
     cdiaghg      :    162.79s CPU    164.02s WALL (  241052 calls)
     cegterg:over :    121.31s CPU    122.16s WALL (  161564 calls)
     cegterg:upda :     64.80s CPU     65.42s WALL (  161564 calls)
     cegterg:last :    107.00s CPU    107.72s WALL (  135638 calls)
     cdiaghg:chol :     19.08s CPU     19.27s WALL (  241052 calls)
     cdiaghg:inve :      4.17s CPU      4.24s WALL (  241052 calls)
     cdiaghg:para :     17.92s CPU     17.88s WALL (  482104 calls)
     h_psi        :   1900.20s CPU   1926.34s WALL (  245468 calls)
     g_psi        :     15.22s CPU     15.36s WALL (  161564 calls)

     Called by h_psi:
     h_psi:calbec :    123.90s CPU    125.54s WALL (  245468 calls)
     vloc_psi     :   1599.76s CPU   1623.16s WALL (  245468 calls)
     add_vuspsi   :    152.53s CPU    153.66s WALL (  245468 calls)

     General routines
     calbec       :    123.07s CPU    124.91s WALL (  245468 calls)
     fft          :      0.13s CPU      0.17s WALL (     190 calls)
     ffts         :      0.01s CPU      0.01s WALL (      18 calls)
     fftw         :   1548.47s CPU   1569.48s WALL ( 8407694 calls)
 
     Parallel routines
 
     PWSCF        :  56m 8.16s CPU  57m17.59s WALL

 
   This run was terminated on:  22:23:30  27Mar2023            

=------------------------------------------------------------------------------=
   JOB DONE.
=------------------------------------------------------------------------------=
