
     Program PWSCF v.6.8 starts on 27Mar2023 at 20:57:11 

     This program is part of the open-source Quantum ESPRESSO suite
     for quantum simulation of materials; please cite
         "P. Giannozzi et al., J. Phys.:Condens. Matter 21 395502 (2009);
         "P. Giannozzi et al., J. Phys.:Condens. Matter 29 465901 (2017);
         "P. Giannozzi et al., J. Chem. Phys. 152 154105 (2020);
          URL http://www.quantum-espresso.org", 
     in publications or presentations arising from this work. More details at
     http://www.quantum-espresso.org/quote

     Parallel version (MPI & OpenMP), running on       6 processor cores
     Number of MPI processes:                 6
     Threads/MPI process:                     1

     MPI processes distributed on     1 nodes
     R & G space division:  proc/nbgrp/npool/nimage =       6
     11321 MiB available memory on the printing compute node when the environment starts
 
     Waiting for input...
     Reading input from standard input
Warning: card &CELL ignored
Warning: card / ignored

     Current dimensions of program PWSCF are:
     Max number of different atomic species (ntypx) = 10
     Max number of k-points (npk) =  40000
     Max angular momentum in pseudopotentials (lmaxx) =  4

     Subspace diagonalization in iterative solution of the eigenvalue problem:
     one sub-group per band group will be used
     scalapack distributed-memory algorithm (size of sub-group:  2*  2 procs)

 
     Parallelization info
     --------------------
     sticks:   dense  smooth     PW     G-vecs:    dense   smooth      PW
     Min         332     332     93                19646    19646    2881
     Max         333     333     94                19651    19651    2886
     Sum        1993    1993    559               117881   117881   17297
 
     Using Slab Decomposition
 


     bravais-lattice index     =            4
     lattice parameter (alat)  =       6.0282  a.u.
     unit-cell volume          =     308.6570 (a.u.)^3
     number of atoms/cell      =            4
     number of atomic types    =            2
     number of electrons       =        36.00
     number of Kohn-Sham states=           18
     kinetic-energy cutoff     =     200.0000  Ry
     charge density cutoff     =     800.0000  Ry
     scf convergence threshold =      1.0E-06
     mixing beta               =       0.7000
     number of iterations used =            8  plain     mixing
     Exchange-correlation= PBE
                           (   1   4   3   4   0   0   0)

     celldm(1)=   6.028226  celldm(2)=   0.000000  celldm(3)=   1.626960
     celldm(4)=   0.000000  celldm(5)=   0.000000  celldm(6)=   0.000000

     crystal axes: (cart. coord. in units of alat)
               a(1) = (   1.000000   0.000000   0.000000 )  
               a(2) = (  -0.500000   0.866025   0.000000 )  
               a(3) = (   0.000000   0.000000   1.626960 )  

     reciprocal axes: (cart. coord. in units 2 pi/alat)
               b(1) = (  1.000000  0.577350  0.000000 )  
               b(2) = (  0.000000  1.154701  0.000000 )  
               b(3) = (  0.000000  0.000000  0.614643 )  


     PseudoPot. # 1 for Ga read from file:
     ../pseudo/Ga_ONCV_PBE_sr.upf
     MD5 check sum: e3654b1fbeb096be7359f640ef9d98d7
     Pseudo is Norm-conserving + core correction, Zval = 13.0
     Generated using ONCVPSP code by D. R. Hamann
     Using radial grid of 1902 points,  6 beta functions with: 
                l(1) =   0
                l(2) =   0
                l(3) =   1
                l(4) =   1
                l(5) =   2
                l(6) =   2

     PseudoPot. # 2 for N  read from file:
     ../pseudo/N_ONCV_PBE_sr.upf
     MD5 check sum: 18c6af81dac9c5a2d6d52ed11cf7bfee
     Pseudo is Norm-conserving + core correction, Zval =  5.0
     Generated using ONCVPSP code by D. R. Hamann
     Using radial grid of 1058 points,  4 beta functions with: 
                l(1) =   0
                l(2) =   0
                l(3) =   1
                l(4) =   1

     atomic species   valence    mass     pseudopotential
        Ga            13.00    69.72300     Ga( 1.00)
        N              5.00    14.00700     N ( 1.00)

     12 Sym. Ops. (no inversion) found ( 6 have fractional translation)


                                    s                        frac. trans.

      isym =  1     identity                                     

 cryst.   s( 1) = (     1          0          0      )
                  (     0          1          0      )
                  (     0          0          1      )

 cart.    s( 1) = (  1.0000000  0.0000000  0.0000000 )
                  (  0.0000000  1.0000000  0.0000000 )
                  (  0.0000000  0.0000000  1.0000000 )


      isym =  2     180 deg rotation - cart. axis [0,0,1]        

 cryst.   s( 2) = (    -1          0          0      )    f =(  0.0000000 )
                  (     0         -1          0      )       (  0.0000000 )
                  (     0          0          1      )       ( -0.5000000 )

 cart.    s( 2) = ( -1.0000000  0.0000000  0.0000000 )    f =(  0.0000000 )
                  (  0.0000000 -1.0000000  0.0000000 )       (  0.0000000 )
                  (  0.0000000  0.0000000  1.0000000 )       ( -0.8134800 )


      isym =  3      60 deg rotation - cryst. axis [0,0,1]       

 cryst.   s( 3) = (     1          1          0      )    f =(  0.0000000 )
                  (    -1          0          0      )       (  0.0000000 )
                  (     0          0          1      )       ( -0.5000000 )

 cart.    s( 3) = (  0.5000000 -0.8660254  0.0000000 )    f =(  0.0000000 )
                  (  0.8660254  0.5000000  0.0000000 )       (  0.0000000 )
                  (  0.0000000  0.0000000  1.0000000 )       ( -0.8134800 )


      isym =  4      60 deg rotation - cryst. axis [0,0,-1]      

 cryst.   s( 4) = (     0         -1          0      )    f =(  0.0000000 )
                  (     1          1          0      )       (  0.0000000 )
                  (     0          0          1      )       ( -0.5000000 )

 cart.    s( 4) = (  0.5000000  0.8660254  0.0000000 )    f =(  0.0000000 )
                  ( -0.8660254  0.5000000  0.0000000 )       (  0.0000000 )
                  (  0.0000000  0.0000000  1.0000000 )       ( -0.8134800 )


      isym =  5     120 deg rotation - cryst. axis [0,0,1]       

 cryst.   s( 5) = (     0          1          0      )
                  (    -1         -1          0      )
                  (     0          0          1      )

 cart.    s( 5) = ( -0.5000000 -0.8660254  0.0000000 )
                  (  0.8660254 -0.5000000  0.0000000 )
                  (  0.0000000  0.0000000  1.0000000 )


      isym =  6     120 deg rotation - cryst. axis [0,0,-1]      

 cryst.   s( 6) = (    -1         -1          0      )
                  (     1          0          0      )
                  (     0          0          1      )

 cart.    s( 6) = ( -0.5000000  0.8660254  0.0000000 )
                  ( -0.8660254 -0.5000000  0.0000000 )
                  (  0.0000000  0.0000000  1.0000000 )


      isym =  7     inv. 180 deg rotation - cart. axis [0,1,0]   

 cryst.   s( 7) = (     1          0          0      )    f =(  0.0000000 )
                  (    -1         -1          0      )       (  0.0000000 )
                  (     0          0          1      )       ( -0.5000000 )

 cart.    s( 7) = (  1.0000000  0.0000000  0.0000000 )    f =(  0.0000000 )
                  (  0.0000000 -1.0000000  0.0000000 )       (  0.0000000 )
                  (  0.0000000  0.0000000  1.0000000 )       ( -0.8134800 )


      isym =  8     inv. 180 deg rotation - cart. axis [1,0,0]   

 cryst.   s( 8) = (    -1          0          0      )
                  (     1          1          0      )
                  (     0          0          1      )

 cart.    s( 8) = ( -1.0000000  0.0000000  0.0000000 )
                  (  0.0000000  1.0000000  0.0000000 )
                  (  0.0000000  0.0000000  1.0000000 )


      isym =  9     inv. 180 deg rotation - cryst. axis [1,-1,0] 

 cryst.   s( 9) = (     0          1          0      )    f =(  0.0000000 )
                  (     1          0          0      )       (  0.0000000 )
                  (     0          0          1      )       ( -0.5000000 )

 cart.    s( 9) = ( -0.5000000  0.8660254  0.0000000 )    f =(  0.0000000 )
                  (  0.8660254  0.5000000  0.0000000 )       (  0.0000000 )
                  (  0.0000000  0.0000000  1.0000000 )       ( -0.8134800 )


      isym = 10     inv. 180 deg rotation - cryst. axis [2,1,0]  

 cryst.   s(10) = (    -1         -1          0      )    f =(  0.0000000 )
                  (     0          1          0      )       (  0.0000000 )
                  (     0          0          1      )       ( -0.5000000 )

 cart.    s(10) = ( -0.5000000 -0.8660254  0.0000000 )    f =(  0.0000000 )
                  ( -0.8660254  0.5000000  0.0000000 )       (  0.0000000 )
                  (  0.0000000  0.0000000  1.0000000 )       ( -0.8134800 )


      isym = 11     inv. 180 deg rotation - cryst. axis [0,1,0]  

 cryst.   s(11) = (     1          1          0      )
                  (     0         -1          0      )
                  (     0          0          1      )

 cart.    s(11) = (  0.5000000  0.8660254  0.0000000 )
                  (  0.8660254 -0.5000000  0.0000000 )
                  (  0.0000000  0.0000000  1.0000000 )


      isym = 12     inv. 180 deg rotation - cryst. axis [1,1,0]  

 cryst.   s(12) = (     0         -1          0      )
                  (    -1          0          0      )
                  (     0          0          1      )

 cart.    s(12) = (  0.5000000 -0.8660254  0.0000000 )
                  ( -0.8660254 -0.5000000  0.0000000 )
                  (  0.0000000  0.0000000  1.0000000 )


     point group C_6v (6mm) 
     there are  6 classes
     the character table:

       E     2C6   2C3   C2    3s_v  3s_d 
A_1    1.00  1.00  1.00  1.00  1.00  1.00
A_2    1.00  1.00  1.00  1.00 -1.00 -1.00
B_1    1.00 -1.00  1.00 -1.00  1.00 -1.00
B_2    1.00 -1.00  1.00 -1.00 -1.00  1.00
E_1    2.00  1.00 -1.00 -2.00  0.00  0.00
E_2    2.00 -1.00 -1.00  2.00  0.00  0.00

     the symmetry operations in each class and the name of the first element:

     E        1
          identity                                               
     2C6      3    4
           60 deg rotation - cryst. axis [0,0,1]                 
     2C3      5    6
          120 deg rotation - cryst. axis [0,0,1]                 
     C2       2
          180 deg rotation - cart. axis [0,0,1]                  
     3s_v     8   12   11
          inv. 180 deg rotation - cart. axis [1,0,0]             
     3s_d     7    9   10
          inv. 180 deg rotation - cart. axis [0,1,0]             

   Cartesian axes

     site n.     atom                  positions (alat units)
         1           Ga  tau(   1) = (   0.5000000   0.2886751   0.8119892  )
         2           Ga  tau(   2) = (   0.0000000   0.5773503   1.6254692  )
         3           N   tau(   3) = (   0.5000000   0.2886751   1.4250808  )
         4           N   tau(   4) = (   0.0000000   0.5773503   0.6116008  )

   Crystallographic axes

     site n.     atom                  positions (cryst. coord.)
         1           Ga  tau(   1) = (  0.6666667  0.3333333  0.4990837  )
         2           Ga  tau(   2) = (  0.3333333  0.6666667  0.9990837  )
         3           N   tau(   3) = (  0.6666667  0.3333333  0.8759163  )
         4           N   tau(   4) = (  0.3333333  0.6666667  0.3759163  )

     number of k points=  3234
                       cart. coord. in units 2pi/alat
        k(    1) = (   0.0000000   0.0000000   0.0000000), wk =   0.0000312
        k(    2) = (   0.0000000   0.0000000   0.0153661), wk =   0.0000625
        k(    3) = (   0.0000000   0.0000000   0.0307322), wk =   0.0000625
        k(    4) = (   0.0000000   0.0000000   0.0460982), wk =   0.0000625
        k(    5) = (   0.0000000   0.0000000   0.0614643), wk =   0.0000625
        k(    6) = (   0.0000000   0.0000000   0.0768304), wk =   0.0000625
        k(    7) = (   0.0000000   0.0000000   0.0921965), wk =   0.0000625
        k(    8) = (   0.0000000   0.0000000   0.1075626), wk =   0.0000625
        k(    9) = (   0.0000000   0.0000000   0.1229287), wk =   0.0000625
        k(   10) = (   0.0000000   0.0000000   0.1382947), wk =   0.0000625
        k(   11) = (   0.0000000   0.0000000   0.1536608), wk =   0.0000625
        k(   12) = (   0.0000000   0.0000000   0.1690269), wk =   0.0000625
        k(   13) = (   0.0000000   0.0000000   0.1843930), wk =   0.0000625
        k(   14) = (   0.0000000   0.0000000   0.1997591), wk =   0.0000625
        k(   15) = (   0.0000000   0.0000000   0.2151251), wk =   0.0000625
        k(   16) = (   0.0000000   0.0000000   0.2304912), wk =   0.0000625
        k(   17) = (   0.0000000   0.0000000   0.2458573), wk =   0.0000625
        k(   18) = (   0.0000000   0.0000000   0.2612234), wk =   0.0000625
        k(   19) = (   0.0000000   0.0000000   0.2765895), wk =   0.0000625
        k(   20) = (   0.0000000   0.0000000   0.2919555), wk =   0.0000625
        k(   21) = (   0.0000000   0.0000000  -0.3073216), wk =   0.0000312
        k(   22) = (   0.0000000   0.0288675   0.0000000), wk =   0.0001875
        k(   23) = (   0.0000000   0.0288675   0.0153661), wk =   0.0003750
        k(   24) = (   0.0000000   0.0288675   0.0307322), wk =   0.0003750
        k(   25) = (   0.0000000   0.0288675   0.0460982), wk =   0.0003750
        k(   26) = (   0.0000000   0.0288675   0.0614643), wk =   0.0003750
        k(   27) = (   0.0000000   0.0288675   0.0768304), wk =   0.0003750
        k(   28) = (   0.0000000   0.0288675   0.0921965), wk =   0.0003750
        k(   29) = (   0.0000000   0.0288675   0.1075626), wk =   0.0003750
        k(   30) = (   0.0000000   0.0288675   0.1229287), wk =   0.0003750
        k(   31) = (   0.0000000   0.0288675   0.1382947), wk =   0.0003750
        k(   32) = (   0.0000000   0.0288675   0.1536608), wk =   0.0003750
        k(   33) = (   0.0000000   0.0288675   0.1690269), wk =   0.0003750
        k(   34) = (   0.0000000   0.0288675   0.1843930), wk =   0.0003750
        k(   35) = (   0.0000000   0.0288675   0.1997591), wk =   0.0003750
        k(   36) = (   0.0000000   0.0288675   0.2151251), wk =   0.0003750
        k(   37) = (   0.0000000   0.0288675   0.2304912), wk =   0.0003750
        k(   38) = (   0.0000000   0.0288675   0.2458573), wk =   0.0003750
        k(   39) = (   0.0000000   0.0288675   0.2612234), wk =   0.0003750
        k(   40) = (   0.0000000   0.0288675   0.2765895), wk =   0.0003750
        k(   41) = (   0.0000000   0.0288675   0.2919555), wk =   0.0003750
        k(   42) = (   0.0000000   0.0288675  -0.3073216), wk =   0.0001875
        k(   43) = (   0.0000000   0.0577350   0.0000000), wk =   0.0001875
        k(   44) = (   0.0000000   0.0577350   0.0153661), wk =   0.0003750
        k(   45) = (   0.0000000   0.0577350   0.0307322), wk =   0.0003750
        k(   46) = (   0.0000000   0.0577350   0.0460982), wk =   0.0003750
        k(   47) = (   0.0000000   0.0577350   0.0614643), wk =   0.0003750
        k(   48) = (   0.0000000   0.0577350   0.0768304), wk =   0.0003750
        k(   49) = (   0.0000000   0.0577350   0.0921965), wk =   0.0003750
        k(   50) = (   0.0000000   0.0577350   0.1075626), wk =   0.0003750
        k(   51) = (   0.0000000   0.0577350   0.1229287), wk =   0.0003750
        k(   52) = (   0.0000000   0.0577350   0.1382947), wk =   0.0003750
        k(   53) = (   0.0000000   0.0577350   0.1536608), wk =   0.0003750
        k(   54) = (   0.0000000   0.0577350   0.1690269), wk =   0.0003750
        k(   55) = (   0.0000000   0.0577350   0.1843930), wk =   0.0003750
        k(   56) = (   0.0000000   0.0577350   0.1997591), wk =   0.0003750
        k(   57) = (   0.0000000   0.0577350   0.2151251), wk =   0.0003750
        k(   58) = (   0.0000000   0.0577350   0.2304912), wk =   0.0003750
        k(   59) = (   0.0000000   0.0577350   0.2458573), wk =   0.0003750
        k(   60) = (   0.0000000   0.0577350   0.2612234), wk =   0.0003750
        k(   61) = (   0.0000000   0.0577350   0.2765895), wk =   0.0003750
        k(   62) = (   0.0000000   0.0577350   0.2919555), wk =   0.0003750
        k(   63) = (   0.0000000   0.0577350  -0.3073216), wk =   0.0001875
        k(   64) = (   0.0000000   0.0866025   0.0000000), wk =   0.0001875
        k(   65) = (   0.0000000   0.0866025   0.0153661), wk =   0.0003750
        k(   66) = (   0.0000000   0.0866025   0.0307322), wk =   0.0003750
        k(   67) = (   0.0000000   0.0866025   0.0460982), wk =   0.0003750
        k(   68) = (   0.0000000   0.0866025   0.0614643), wk =   0.0003750
        k(   69) = (   0.0000000   0.0866025   0.0768304), wk =   0.0003750
        k(   70) = (   0.0000000   0.0866025   0.0921965), wk =   0.0003750
        k(   71) = (   0.0000000   0.0866025   0.1075626), wk =   0.0003750
        k(   72) = (   0.0000000   0.0866025   0.1229287), wk =   0.0003750
        k(   73) = (   0.0000000   0.0866025   0.1382947), wk =   0.0003750
        k(   74) = (   0.0000000   0.0866025   0.1536608), wk =   0.0003750
        k(   75) = (   0.0000000   0.0866025   0.1690269), wk =   0.0003750
        k(   76) = (   0.0000000   0.0866025   0.1843930), wk =   0.0003750
        k(   77) = (   0.0000000   0.0866025   0.1997591), wk =   0.0003750
        k(   78) = (   0.0000000   0.0866025   0.2151251), wk =   0.0003750
        k(   79) = (   0.0000000   0.0866025   0.2304912), wk =   0.0003750
        k(   80) = (   0.0000000   0.0866025   0.2458573), wk =   0.0003750
        k(   81) = (   0.0000000   0.0866025   0.2612234), wk =   0.0003750
        k(   82) = (   0.0000000   0.0866025   0.2765895), wk =   0.0003750
        k(   83) = (   0.0000000   0.0866025   0.2919555), wk =   0.0003750
        k(   84) = (   0.0000000   0.0866025  -0.3073216), wk =   0.0001875
        k(   85) = (   0.0000000   0.1154701   0.0000000), wk =   0.0001875
        k(   86) = (   0.0000000   0.1154701   0.0153661), wk =   0.0003750
        k(   87) = (   0.0000000   0.1154701   0.0307322), wk =   0.0003750
        k(   88) = (   0.0000000   0.1154701   0.0460982), wk =   0.0003750
        k(   89) = (   0.0000000   0.1154701   0.0614643), wk =   0.0003750
        k(   90) = (   0.0000000   0.1154701   0.0768304), wk =   0.0003750
        k(   91) = (   0.0000000   0.1154701   0.0921965), wk =   0.0003750
        k(   92) = (   0.0000000   0.1154701   0.1075626), wk =   0.0003750
        k(   93) = (   0.0000000   0.1154701   0.1229287), wk =   0.0003750
        k(   94) = (   0.0000000   0.1154701   0.1382947), wk =   0.0003750
        k(   95) = (   0.0000000   0.1154701   0.1536608), wk =   0.0003750
        k(   96) = (   0.0000000   0.1154701   0.1690269), wk =   0.0003750
        k(   97) = (   0.0000000   0.1154701   0.1843930), wk =   0.0003750
        k(   98) = (   0.0000000   0.1154701   0.1997591), wk =   0.0003750
        k(   99) = (   0.0000000   0.1154701   0.2151251), wk =   0.0003750
        k(  100) = (   0.0000000   0.1154701   0.2304912), wk =   0.0003750
        k(  101) = (   0.0000000   0.1154701   0.2458573), wk =   0.0003750
        k(  102) = (   0.0000000   0.1154701   0.2612234), wk =   0.0003750
        k(  103) = (   0.0000000   0.1154701   0.2765895), wk =   0.0003750
        k(  104) = (   0.0000000   0.1154701   0.2919555), wk =   0.0003750
        k(  105) = (   0.0000000   0.1154701  -0.3073216), wk =   0.0001875
        k(  106) = (   0.0000000   0.1443376   0.0000000), wk =   0.0001875
        k(  107) = (   0.0000000   0.1443376   0.0153661), wk =   0.0003750
        k(  108) = (   0.0000000   0.1443376   0.0307322), wk =   0.0003750
        k(  109) = (   0.0000000   0.1443376   0.0460982), wk =   0.0003750
        k(  110) = (   0.0000000   0.1443376   0.0614643), wk =   0.0003750
        k(  111) = (   0.0000000   0.1443376   0.0768304), wk =   0.0003750
        k(  112) = (   0.0000000   0.1443376   0.0921965), wk =   0.0003750
        k(  113) = (   0.0000000   0.1443376   0.1075626), wk =   0.0003750
        k(  114) = (   0.0000000   0.1443376   0.1229287), wk =   0.0003750
        k(  115) = (   0.0000000   0.1443376   0.1382947), wk =   0.0003750
        k(  116) = (   0.0000000   0.1443376   0.1536608), wk =   0.0003750
        k(  117) = (   0.0000000   0.1443376   0.1690269), wk =   0.0003750
        k(  118) = (   0.0000000   0.1443376   0.1843930), wk =   0.0003750
        k(  119) = (   0.0000000   0.1443376   0.1997591), wk =   0.0003750
        k(  120) = (   0.0000000   0.1443376   0.2151251), wk =   0.0003750
        k(  121) = (   0.0000000   0.1443376   0.2304912), wk =   0.0003750
        k(  122) = (   0.0000000   0.1443376   0.2458573), wk =   0.0003750
        k(  123) = (   0.0000000   0.1443376   0.2612234), wk =   0.0003750
        k(  124) = (   0.0000000   0.1443376   0.2765895), wk =   0.0003750
        k(  125) = (   0.0000000   0.1443376   0.2919555), wk =   0.0003750
        k(  126) = (   0.0000000   0.1443376  -0.3073216), wk =   0.0001875
        k(  127) = (   0.0000000   0.1732051   0.0000000), wk =   0.0001875
        k(  128) = (   0.0000000   0.1732051   0.0153661), wk =   0.0003750
        k(  129) = (   0.0000000   0.1732051   0.0307322), wk =   0.0003750
        k(  130) = (   0.0000000   0.1732051   0.0460982), wk =   0.0003750
        k(  131) = (   0.0000000   0.1732051   0.0614643), wk =   0.0003750
        k(  132) = (   0.0000000   0.1732051   0.0768304), wk =   0.0003750
        k(  133) = (   0.0000000   0.1732051   0.0921965), wk =   0.0003750
        k(  134) = (   0.0000000   0.1732051   0.1075626), wk =   0.0003750
        k(  135) = (   0.0000000   0.1732051   0.1229287), wk =   0.0003750
        k(  136) = (   0.0000000   0.1732051   0.1382947), wk =   0.0003750
        k(  137) = (   0.0000000   0.1732051   0.1536608), wk =   0.0003750
        k(  138) = (   0.0000000   0.1732051   0.1690269), wk =   0.0003750
        k(  139) = (   0.0000000   0.1732051   0.1843930), wk =   0.0003750
        k(  140) = (   0.0000000   0.1732051   0.1997591), wk =   0.0003750
        k(  141) = (   0.0000000   0.1732051   0.2151251), wk =   0.0003750
        k(  142) = (   0.0000000   0.1732051   0.2304912), wk =   0.0003750
        k(  143) = (   0.0000000   0.1732051   0.2458573), wk =   0.0003750
        k(  144) = (   0.0000000   0.1732051   0.2612234), wk =   0.0003750
        k(  145) = (   0.0000000   0.1732051   0.2765895), wk =   0.0003750
        k(  146) = (   0.0000000   0.1732051   0.2919555), wk =   0.0003750
        k(  147) = (   0.0000000   0.1732051  -0.3073216), wk =   0.0001875
        k(  148) = (   0.0000000   0.2020726   0.0000000), wk =   0.0001875
        k(  149) = (   0.0000000   0.2020726   0.0153661), wk =   0.0003750
        k(  150) = (   0.0000000   0.2020726   0.0307322), wk =   0.0003750
        k(  151) = (   0.0000000   0.2020726   0.0460982), wk =   0.0003750
        k(  152) = (   0.0000000   0.2020726   0.0614643), wk =   0.0003750
        k(  153) = (   0.0000000   0.2020726   0.0768304), wk =   0.0003750
        k(  154) = (   0.0000000   0.2020726   0.0921965), wk =   0.0003750
        k(  155) = (   0.0000000   0.2020726   0.1075626), wk =   0.0003750
        k(  156) = (   0.0000000   0.2020726   0.1229287), wk =   0.0003750
        k(  157) = (   0.0000000   0.2020726   0.1382947), wk =   0.0003750
        k(  158) = (   0.0000000   0.2020726   0.1536608), wk =   0.0003750
        k(  159) = (   0.0000000   0.2020726   0.1690269), wk =   0.0003750
        k(  160) = (   0.0000000   0.2020726   0.1843930), wk =   0.0003750
        k(  161) = (   0.0000000   0.2020726   0.1997591), wk =   0.0003750
        k(  162) = (   0.0000000   0.2020726   0.2151251), wk =   0.0003750
        k(  163) = (   0.0000000   0.2020726   0.2304912), wk =   0.0003750
        k(  164) = (   0.0000000   0.2020726   0.2458573), wk =   0.0003750
        k(  165) = (   0.0000000   0.2020726   0.2612234), wk =   0.0003750
        k(  166) = (   0.0000000   0.2020726   0.2765895), wk =   0.0003750
        k(  167) = (   0.0000000   0.2020726   0.2919555), wk =   0.0003750
        k(  168) = (   0.0000000   0.2020726  -0.3073216), wk =   0.0001875
        k(  169) = (   0.0000000   0.2309401   0.0000000), wk =   0.0001875
        k(  170) = (   0.0000000   0.2309401   0.0153661), wk =   0.0003750
        k(  171) = (   0.0000000   0.2309401   0.0307322), wk =   0.0003750
        k(  172) = (   0.0000000   0.2309401   0.0460982), wk =   0.0003750
        k(  173) = (   0.0000000   0.2309401   0.0614643), wk =   0.0003750
        k(  174) = (   0.0000000   0.2309401   0.0768304), wk =   0.0003750
        k(  175) = (   0.0000000   0.2309401   0.0921965), wk =   0.0003750
        k(  176) = (   0.0000000   0.2309401   0.1075626), wk =   0.0003750
        k(  177) = (   0.0000000   0.2309401   0.1229287), wk =   0.0003750
        k(  178) = (   0.0000000   0.2309401   0.1382947), wk =   0.0003750
        k(  179) = (   0.0000000   0.2309401   0.1536608), wk =   0.0003750
        k(  180) = (   0.0000000   0.2309401   0.1690269), wk =   0.0003750
        k(  181) = (   0.0000000   0.2309401   0.1843930), wk =   0.0003750
        k(  182) = (   0.0000000   0.2309401   0.1997591), wk =   0.0003750
        k(  183) = (   0.0000000   0.2309401   0.2151251), wk =   0.0003750
        k(  184) = (   0.0000000   0.2309401   0.2304912), wk =   0.0003750
        k(  185) = (   0.0000000   0.2309401   0.2458573), wk =   0.0003750
        k(  186) = (   0.0000000   0.2309401   0.2612234), wk =   0.0003750
        k(  187) = (   0.0000000   0.2309401   0.2765895), wk =   0.0003750
        k(  188) = (   0.0000000   0.2309401   0.2919555), wk =   0.0003750
        k(  189) = (   0.0000000   0.2309401  -0.3073216), wk =   0.0001875
        k(  190) = (   0.0000000   0.2598076   0.0000000), wk =   0.0001875
        k(  191) = (   0.0000000   0.2598076   0.0153661), wk =   0.0003750
        k(  192) = (   0.0000000   0.2598076   0.0307322), wk =   0.0003750
        k(  193) = (   0.0000000   0.2598076   0.0460982), wk =   0.0003750
        k(  194) = (   0.0000000   0.2598076   0.0614643), wk =   0.0003750
        k(  195) = (   0.0000000   0.2598076   0.0768304), wk =   0.0003750
        k(  196) = (   0.0000000   0.2598076   0.0921965), wk =   0.0003750
        k(  197) = (   0.0000000   0.2598076   0.1075626), wk =   0.0003750
        k(  198) = (   0.0000000   0.2598076   0.1229287), wk =   0.0003750
        k(  199) = (   0.0000000   0.2598076   0.1382947), wk =   0.0003750
        k(  200) = (   0.0000000   0.2598076   0.1536608), wk =   0.0003750
        k(  201) = (   0.0000000   0.2598076   0.1690269), wk =   0.0003750
        k(  202) = (   0.0000000   0.2598076   0.1843930), wk =   0.0003750
        k(  203) = (   0.0000000   0.2598076   0.1997591), wk =   0.0003750
        k(  204) = (   0.0000000   0.2598076   0.2151251), wk =   0.0003750
        k(  205) = (   0.0000000   0.2598076   0.2304912), wk =   0.0003750
        k(  206) = (   0.0000000   0.2598076   0.2458573), wk =   0.0003750
        k(  207) = (   0.0000000   0.2598076   0.2612234), wk =   0.0003750
        k(  208) = (   0.0000000   0.2598076   0.2765895), wk =   0.0003750
        k(  209) = (   0.0000000   0.2598076   0.2919555), wk =   0.0003750
        k(  210) = (   0.0000000   0.2598076  -0.3073216), wk =   0.0001875
        k(  211) = (   0.0000000   0.2886751   0.0000000), wk =   0.0001875
        k(  212) = (   0.0000000   0.2886751   0.0153661), wk =   0.0003750
        k(  213) = (   0.0000000   0.2886751   0.0307322), wk =   0.0003750
        k(  214) = (   0.0000000   0.2886751   0.0460982), wk =   0.0003750
        k(  215) = (   0.0000000   0.2886751   0.0614643), wk =   0.0003750
        k(  216) = (   0.0000000   0.2886751   0.0768304), wk =   0.0003750
        k(  217) = (   0.0000000   0.2886751   0.0921965), wk =   0.0003750
        k(  218) = (   0.0000000   0.2886751   0.1075626), wk =   0.0003750
        k(  219) = (   0.0000000   0.2886751   0.1229287), wk =   0.0003750
        k(  220) = (   0.0000000   0.2886751   0.1382947), wk =   0.0003750
        k(  221) = (   0.0000000   0.2886751   0.1536608), wk =   0.0003750
        k(  222) = (   0.0000000   0.2886751   0.1690269), wk =   0.0003750
        k(  223) = (   0.0000000   0.2886751   0.1843930), wk =   0.0003750
        k(  224) = (   0.0000000   0.2886751   0.1997591), wk =   0.0003750
        k(  225) = (   0.0000000   0.2886751   0.2151251), wk =   0.0003750
        k(  226) = (   0.0000000   0.2886751   0.2304912), wk =   0.0003750
        k(  227) = (   0.0000000   0.2886751   0.2458573), wk =   0.0003750
        k(  228) = (   0.0000000   0.2886751   0.2612234), wk =   0.0003750
        k(  229) = (   0.0000000   0.2886751   0.2765895), wk =   0.0003750
        k(  230) = (   0.0000000   0.2886751   0.2919555), wk =   0.0003750
        k(  231) = (   0.0000000   0.2886751  -0.3073216), wk =   0.0001875
        k(  232) = (   0.0000000   0.3175426   0.0000000), wk =   0.0001875
        k(  233) = (   0.0000000   0.3175426   0.0153661), wk =   0.0003750
        k(  234) = (   0.0000000   0.3175426   0.0307322), wk =   0.0003750
        k(  235) = (   0.0000000   0.3175426   0.0460982), wk =   0.0003750
        k(  236) = (   0.0000000   0.3175426   0.0614643), wk =   0.0003750
        k(  237) = (   0.0000000   0.3175426   0.0768304), wk =   0.0003750
        k(  238) = (   0.0000000   0.3175426   0.0921965), wk =   0.0003750
        k(  239) = (   0.0000000   0.3175426   0.1075626), wk =   0.0003750
        k(  240) = (   0.0000000   0.3175426   0.1229287), wk =   0.0003750
        k(  241) = (   0.0000000   0.3175426   0.1382947), wk =   0.0003750
        k(  242) = (   0.0000000   0.3175426   0.1536608), wk =   0.0003750
        k(  243) = (   0.0000000   0.3175426   0.1690269), wk =   0.0003750
        k(  244) = (   0.0000000   0.3175426   0.1843930), wk =   0.0003750
        k(  245) = (   0.0000000   0.3175426   0.1997591), wk =   0.0003750
        k(  246) = (   0.0000000   0.3175426   0.2151251), wk =   0.0003750
        k(  247) = (   0.0000000   0.3175426   0.2304912), wk =   0.0003750
        k(  248) = (   0.0000000   0.3175426   0.2458573), wk =   0.0003750
        k(  249) = (   0.0000000   0.3175426   0.2612234), wk =   0.0003750
        k(  250) = (   0.0000000   0.3175426   0.2765895), wk =   0.0003750
        k(  251) = (   0.0000000   0.3175426   0.2919555), wk =   0.0003750
        k(  252) = (   0.0000000   0.3175426  -0.3073216), wk =   0.0001875
        k(  253) = (   0.0000000   0.3464102   0.0000000), wk =   0.0001875
        k(  254) = (   0.0000000   0.3464102   0.0153661), wk =   0.0003750
        k(  255) = (   0.0000000   0.3464102   0.0307322), wk =   0.0003750
        k(  256) = (   0.0000000   0.3464102   0.0460982), wk =   0.0003750
        k(  257) = (   0.0000000   0.3464102   0.0614643), wk =   0.0003750
        k(  258) = (   0.0000000   0.3464102   0.0768304), wk =   0.0003750
        k(  259) = (   0.0000000   0.3464102   0.0921965), wk =   0.0003750
        k(  260) = (   0.0000000   0.3464102   0.1075626), wk =   0.0003750
        k(  261) = (   0.0000000   0.3464102   0.1229287), wk =   0.0003750
        k(  262) = (   0.0000000   0.3464102   0.1382947), wk =   0.0003750
        k(  263) = (   0.0000000   0.3464102   0.1536608), wk =   0.0003750
        k(  264) = (   0.0000000   0.3464102   0.1690269), wk =   0.0003750
        k(  265) = (   0.0000000   0.3464102   0.1843930), wk =   0.0003750
        k(  266) = (   0.0000000   0.3464102   0.1997591), wk =   0.0003750
        k(  267) = (   0.0000000   0.3464102   0.2151251), wk =   0.0003750
        k(  268) = (   0.0000000   0.3464102   0.2304912), wk =   0.0003750
        k(  269) = (   0.0000000   0.3464102   0.2458573), wk =   0.0003750
        k(  270) = (   0.0000000   0.3464102   0.2612234), wk =   0.0003750
        k(  271) = (   0.0000000   0.3464102   0.2765895), wk =   0.0003750
        k(  272) = (   0.0000000   0.3464102   0.2919555), wk =   0.0003750
        k(  273) = (   0.0000000   0.3464102  -0.3073216), wk =   0.0001875
        k(  274) = (   0.0000000   0.3752777   0.0000000), wk =   0.0001875
        k(  275) = (   0.0000000   0.3752777   0.0153661), wk =   0.0003750
        k(  276) = (   0.0000000   0.3752777   0.0307322), wk =   0.0003750
        k(  277) = (   0.0000000   0.3752777   0.0460982), wk =   0.0003750
        k(  278) = (   0.0000000   0.3752777   0.0614643), wk =   0.0003750
        k(  279) = (   0.0000000   0.3752777   0.0768304), wk =   0.0003750
        k(  280) = (   0.0000000   0.3752777   0.0921965), wk =   0.0003750
        k(  281) = (   0.0000000   0.3752777   0.1075626), wk =   0.0003750
        k(  282) = (   0.0000000   0.3752777   0.1229287), wk =   0.0003750
        k(  283) = (   0.0000000   0.3752777   0.1382947), wk =   0.0003750
        k(  284) = (   0.0000000   0.3752777   0.1536608), wk =   0.0003750
        k(  285) = (   0.0000000   0.3752777   0.1690269), wk =   0.0003750
        k(  286) = (   0.0000000   0.3752777   0.1843930), wk =   0.0003750
        k(  287) = (   0.0000000   0.3752777   0.1997591), wk =   0.0003750
        k(  288) = (   0.0000000   0.3752777   0.2151251), wk =   0.0003750
        k(  289) = (   0.0000000   0.3752777   0.2304912), wk =   0.0003750
        k(  290) = (   0.0000000   0.3752777   0.2458573), wk =   0.0003750
        k(  291) = (   0.0000000   0.3752777   0.2612234), wk =   0.0003750
        k(  292) = (   0.0000000   0.3752777   0.2765895), wk =   0.0003750
        k(  293) = (   0.0000000   0.3752777   0.2919555), wk =   0.0003750
        k(  294) = (   0.0000000   0.3752777  -0.3073216), wk =   0.0001875
        k(  295) = (   0.0000000   0.4041452   0.0000000), wk =   0.0001875
        k(  296) = (   0.0000000   0.4041452   0.0153661), wk =   0.0003750
        k(  297) = (   0.0000000   0.4041452   0.0307322), wk =   0.0003750
        k(  298) = (   0.0000000   0.4041452   0.0460982), wk =   0.0003750
        k(  299) = (   0.0000000   0.4041452   0.0614643), wk =   0.0003750
        k(  300) = (   0.0000000   0.4041452   0.0768304), wk =   0.0003750
        k(  301) = (   0.0000000   0.4041452   0.0921965), wk =   0.0003750
        k(  302) = (   0.0000000   0.4041452   0.1075626), wk =   0.0003750
        k(  303) = (   0.0000000   0.4041452   0.1229287), wk =   0.0003750
        k(  304) = (   0.0000000   0.4041452   0.1382947), wk =   0.0003750
        k(  305) = (   0.0000000   0.4041452   0.1536608), wk =   0.0003750
        k(  306) = (   0.0000000   0.4041452   0.1690269), wk =   0.0003750
        k(  307) = (   0.0000000   0.4041452   0.1843930), wk =   0.0003750
        k(  308) = (   0.0000000   0.4041452   0.1997591), wk =   0.0003750
        k(  309) = (   0.0000000   0.4041452   0.2151251), wk =   0.0003750
        k(  310) = (   0.0000000   0.4041452   0.2304912), wk =   0.0003750
        k(  311) = (   0.0000000   0.4041452   0.2458573), wk =   0.0003750
        k(  312) = (   0.0000000   0.4041452   0.2612234), wk =   0.0003750
        k(  313) = (   0.0000000   0.4041452   0.2765895), wk =   0.0003750
        k(  314) = (   0.0000000   0.4041452   0.2919555), wk =   0.0003750
        k(  315) = (   0.0000000   0.4041452  -0.3073216), wk =   0.0001875
        k(  316) = (   0.0000000   0.4330127   0.0000000), wk =   0.0001875
        k(  317) = (   0.0000000   0.4330127   0.0153661), wk =   0.0003750
        k(  318) = (   0.0000000   0.4330127   0.0307322), wk =   0.0003750
        k(  319) = (   0.0000000   0.4330127   0.0460982), wk =   0.0003750
        k(  320) = (   0.0000000   0.4330127   0.0614643), wk =   0.0003750
        k(  321) = (   0.0000000   0.4330127   0.0768304), wk =   0.0003750
        k(  322) = (   0.0000000   0.4330127   0.0921965), wk =   0.0003750
        k(  323) = (   0.0000000   0.4330127   0.1075626), wk =   0.0003750
        k(  324) = (   0.0000000   0.4330127   0.1229287), wk =   0.0003750
        k(  325) = (   0.0000000   0.4330127   0.1382947), wk =   0.0003750
        k(  326) = (   0.0000000   0.4330127   0.1536608), wk =   0.0003750
        k(  327) = (   0.0000000   0.4330127   0.1690269), wk =   0.0003750
        k(  328) = (   0.0000000   0.4330127   0.1843930), wk =   0.0003750
        k(  329) = (   0.0000000   0.4330127   0.1997591), wk =   0.0003750
        k(  330) = (   0.0000000   0.4330127   0.2151251), wk =   0.0003750
        k(  331) = (   0.0000000   0.4330127   0.2304912), wk =   0.0003750
        k(  332) = (   0.0000000   0.4330127   0.2458573), wk =   0.0003750
        k(  333) = (   0.0000000   0.4330127   0.2612234), wk =   0.0003750
        k(  334) = (   0.0000000   0.4330127   0.2765895), wk =   0.0003750
        k(  335) = (   0.0000000   0.4330127   0.2919555), wk =   0.0003750
        k(  336) = (   0.0000000   0.4330127  -0.3073216), wk =   0.0001875
        k(  337) = (   0.0000000   0.4618802   0.0000000), wk =   0.0001875
        k(  338) = (   0.0000000   0.4618802   0.0153661), wk =   0.0003750
        k(  339) = (   0.0000000   0.4618802   0.0307322), wk =   0.0003750
        k(  340) = (   0.0000000   0.4618802   0.0460982), wk =   0.0003750
        k(  341) = (   0.0000000   0.4618802   0.0614643), wk =   0.0003750
        k(  342) = (   0.0000000   0.4618802   0.0768304), wk =   0.0003750
        k(  343) = (   0.0000000   0.4618802   0.0921965), wk =   0.0003750
        k(  344) = (   0.0000000   0.4618802   0.1075626), wk =   0.0003750
        k(  345) = (   0.0000000   0.4618802   0.1229287), wk =   0.0003750
        k(  346) = (   0.0000000   0.4618802   0.1382947), wk =   0.0003750
        k(  347) = (   0.0000000   0.4618802   0.1536608), wk =   0.0003750
        k(  348) = (   0.0000000   0.4618802   0.1690269), wk =   0.0003750
        k(  349) = (   0.0000000   0.4618802   0.1843930), wk =   0.0003750
        k(  350) = (   0.0000000   0.4618802   0.1997591), wk =   0.0003750
        k(  351) = (   0.0000000   0.4618802   0.2151251), wk =   0.0003750
        k(  352) = (   0.0000000   0.4618802   0.2304912), wk =   0.0003750
        k(  353) = (   0.0000000   0.4618802   0.2458573), wk =   0.0003750
        k(  354) = (   0.0000000   0.4618802   0.2612234), wk =   0.0003750
        k(  355) = (   0.0000000   0.4618802   0.2765895), wk =   0.0003750
        k(  356) = (   0.0000000   0.4618802   0.2919555), wk =   0.0003750
        k(  357) = (   0.0000000   0.4618802  -0.3073216), wk =   0.0001875
        k(  358) = (   0.0000000   0.4907477   0.0000000), wk =   0.0001875
        k(  359) = (   0.0000000   0.4907477   0.0153661), wk =   0.0003750
        k(  360) = (   0.0000000   0.4907477   0.0307322), wk =   0.0003750
        k(  361) = (   0.0000000   0.4907477   0.0460982), wk =   0.0003750
        k(  362) = (   0.0000000   0.4907477   0.0614643), wk =   0.0003750
        k(  363) = (   0.0000000   0.4907477   0.0768304), wk =   0.0003750
        k(  364) = (   0.0000000   0.4907477   0.0921965), wk =   0.0003750
        k(  365) = (   0.0000000   0.4907477   0.1075626), wk =   0.0003750
        k(  366) = (   0.0000000   0.4907477   0.1229287), wk =   0.0003750
        k(  367) = (   0.0000000   0.4907477   0.1382947), wk =   0.0003750
        k(  368) = (   0.0000000   0.4907477   0.1536608), wk =   0.0003750
        k(  369) = (   0.0000000   0.4907477   0.1690269), wk =   0.0003750
        k(  370) = (   0.0000000   0.4907477   0.1843930), wk =   0.0003750
        k(  371) = (   0.0000000   0.4907477   0.1997591), wk =   0.0003750
        k(  372) = (   0.0000000   0.4907477   0.2151251), wk =   0.0003750
        k(  373) = (   0.0000000   0.4907477   0.2304912), wk =   0.0003750
        k(  374) = (   0.0000000   0.4907477   0.2458573), wk =   0.0003750
        k(  375) = (   0.0000000   0.4907477   0.2612234), wk =   0.0003750
        k(  376) = (   0.0000000   0.4907477   0.2765895), wk =   0.0003750
        k(  377) = (   0.0000000   0.4907477   0.2919555), wk =   0.0003750
        k(  378) = (   0.0000000   0.4907477  -0.3073216), wk =   0.0001875
        k(  379) = (   0.0000000   0.5196152   0.0000000), wk =   0.0001875
        k(  380) = (   0.0000000   0.5196152   0.0153661), wk =   0.0003750
        k(  381) = (   0.0000000   0.5196152   0.0307322), wk =   0.0003750
        k(  382) = (   0.0000000   0.5196152   0.0460982), wk =   0.0003750
        k(  383) = (   0.0000000   0.5196152   0.0614643), wk =   0.0003750
        k(  384) = (   0.0000000   0.5196152   0.0768304), wk =   0.0003750
        k(  385) = (   0.0000000   0.5196152   0.0921965), wk =   0.0003750
        k(  386) = (   0.0000000   0.5196152   0.1075626), wk =   0.0003750
        k(  387) = (   0.0000000   0.5196152   0.1229287), wk =   0.0003750
        k(  388) = (   0.0000000   0.5196152   0.1382947), wk =   0.0003750
        k(  389) = (   0.0000000   0.5196152   0.1536608), wk =   0.0003750
        k(  390) = (   0.0000000   0.5196152   0.1690269), wk =   0.0003750
        k(  391) = (   0.0000000   0.5196152   0.1843930), wk =   0.0003750
        k(  392) = (   0.0000000   0.5196152   0.1997591), wk =   0.0003750
        k(  393) = (   0.0000000   0.5196152   0.2151251), wk =   0.0003750
        k(  394) = (   0.0000000   0.5196152   0.2304912), wk =   0.0003750
        k(  395) = (   0.0000000   0.5196152   0.2458573), wk =   0.0003750
        k(  396) = (   0.0000000   0.5196152   0.2612234), wk =   0.0003750
        k(  397) = (   0.0000000   0.5196152   0.2765895), wk =   0.0003750
        k(  398) = (   0.0000000   0.5196152   0.2919555), wk =   0.0003750
        k(  399) = (   0.0000000   0.5196152  -0.3073216), wk =   0.0001875
        k(  400) = (   0.0000000   0.5484828   0.0000000), wk =   0.0001875
        k(  401) = (   0.0000000   0.5484828   0.0153661), wk =   0.0003750
        k(  402) = (   0.0000000   0.5484828   0.0307322), wk =   0.0003750
        k(  403) = (   0.0000000   0.5484828   0.0460982), wk =   0.0003750
        k(  404) = (   0.0000000   0.5484828   0.0614643), wk =   0.0003750
        k(  405) = (   0.0000000   0.5484828   0.0768304), wk =   0.0003750
        k(  406) = (   0.0000000   0.5484828   0.0921965), wk =   0.0003750
        k(  407) = (   0.0000000   0.5484828   0.1075626), wk =   0.0003750
        k(  408) = (   0.0000000   0.5484828   0.1229287), wk =   0.0003750
        k(  409) = (   0.0000000   0.5484828   0.1382947), wk =   0.0003750
        k(  410) = (   0.0000000   0.5484828   0.1536608), wk =   0.0003750
        k(  411) = (   0.0000000   0.5484828   0.1690269), wk =   0.0003750
        k(  412) = (   0.0000000   0.5484828   0.1843930), wk =   0.0003750
        k(  413) = (   0.0000000   0.5484828   0.1997591), wk =   0.0003750
        k(  414) = (   0.0000000   0.5484828   0.2151251), wk =   0.0003750
        k(  415) = (   0.0000000   0.5484828   0.2304912), wk =   0.0003750
        k(  416) = (   0.0000000   0.5484828   0.2458573), wk =   0.0003750
        k(  417) = (   0.0000000   0.5484828   0.2612234), wk =   0.0003750
        k(  418) = (   0.0000000   0.5484828   0.2765895), wk =   0.0003750
        k(  419) = (   0.0000000   0.5484828   0.2919555), wk =   0.0003750
        k(  420) = (   0.0000000   0.5484828  -0.3073216), wk =   0.0001875
        k(  421) = (   0.0000000  -0.5773503   0.0000000), wk =   0.0000937
        k(  422) = (   0.0000000  -0.5773503   0.0153661), wk =   0.0001875
        k(  423) = (   0.0000000  -0.5773503   0.0307322), wk =   0.0001875
        k(  424) = (   0.0000000  -0.5773503   0.0460982), wk =   0.0001875
        k(  425) = (   0.0000000  -0.5773503   0.0614643), wk =   0.0001875
        k(  426) = (   0.0000000  -0.5773503   0.0768304), wk =   0.0001875
        k(  427) = (   0.0000000  -0.5773503   0.0921965), wk =   0.0001875
        k(  428) = (   0.0000000  -0.5773503   0.1075626), wk =   0.0001875
        k(  429) = (   0.0000000  -0.5773503   0.1229287), wk =   0.0001875
        k(  430) = (   0.0000000  -0.5773503   0.1382947), wk =   0.0001875
        k(  431) = (   0.0000000  -0.5773503   0.1536608), wk =   0.0001875
        k(  432) = (   0.0000000  -0.5773503   0.1690269), wk =   0.0001875
        k(  433) = (   0.0000000  -0.5773503   0.1843930), wk =   0.0001875
        k(  434) = (   0.0000000  -0.5773503   0.1997591), wk =   0.0001875
        k(  435) = (   0.0000000  -0.5773503   0.2151251), wk =   0.0001875
        k(  436) = (   0.0000000  -0.5773503   0.2304912), wk =   0.0001875
        k(  437) = (   0.0000000  -0.5773503   0.2458573), wk =   0.0001875
        k(  438) = (   0.0000000  -0.5773503   0.2612234), wk =   0.0001875
        k(  439) = (   0.0000000  -0.5773503   0.2765895), wk =   0.0001875
        k(  440) = (   0.0000000  -0.5773503   0.2919555), wk =   0.0001875
        k(  441) = (   0.0000000  -0.5773503  -0.3073216), wk =   0.0000937
        k(  442) = (   0.0250000   0.0433013   0.0000000), wk =   0.0001875
        k(  443) = (   0.0250000   0.0433013   0.0153661), wk =   0.0003750
        k(  444) = (   0.0250000   0.0433013   0.0307322), wk =   0.0003750
        k(  445) = (   0.0250000   0.0433013   0.0460982), wk =   0.0003750
        k(  446) = (   0.0250000   0.0433013   0.0614643), wk =   0.0003750
        k(  447) = (   0.0250000   0.0433013   0.0768304), wk =   0.0003750
        k(  448) = (   0.0250000   0.0433013   0.0921965), wk =   0.0003750
        k(  449) = (   0.0250000   0.0433013   0.1075626), wk =   0.0003750
        k(  450) = (   0.0250000   0.0433013   0.1229287), wk =   0.0003750
        k(  451) = (   0.0250000   0.0433013   0.1382947), wk =   0.0003750
        k(  452) = (   0.0250000   0.0433013   0.1536608), wk =   0.0003750
        k(  453) = (   0.0250000   0.0433013   0.1690269), wk =   0.0003750
        k(  454) = (   0.0250000   0.0433013   0.1843930), wk =   0.0003750
        k(  455) = (   0.0250000   0.0433013   0.1997591), wk =   0.0003750
        k(  456) = (   0.0250000   0.0433013   0.2151251), wk =   0.0003750
        k(  457) = (   0.0250000   0.0433013   0.2304912), wk =   0.0003750
        k(  458) = (   0.0250000   0.0433013   0.2458573), wk =   0.0003750
        k(  459) = (   0.0250000   0.0433013   0.2612234), wk =   0.0003750
        k(  460) = (   0.0250000   0.0433013   0.2765895), wk =   0.0003750
        k(  461) = (   0.0250000   0.0433013   0.2919555), wk =   0.0003750
        k(  462) = (   0.0250000   0.0433013  -0.3073216), wk =   0.0001875
        k(  463) = (   0.0250000   0.0721688   0.0000000), wk =   0.0003750
        k(  464) = (   0.0250000   0.0721688   0.0153661), wk =   0.0007500
        k(  465) = (   0.0250000   0.0721688   0.0307322), wk =   0.0007500
        k(  466) = (   0.0250000   0.0721688   0.0460982), wk =   0.0007500
        k(  467) = (   0.0250000   0.0721688   0.0614643), wk =   0.0007500
        k(  468) = (   0.0250000   0.0721688   0.0768304), wk =   0.0007500
        k(  469) = (   0.0250000   0.0721688   0.0921965), wk =   0.0007500
        k(  470) = (   0.0250000   0.0721688   0.1075626), wk =   0.0007500
        k(  471) = (   0.0250000   0.0721688   0.1229287), wk =   0.0007500
        k(  472) = (   0.0250000   0.0721688   0.1382947), wk =   0.0007500
        k(  473) = (   0.0250000   0.0721688   0.1536608), wk =   0.0007500
        k(  474) = (   0.0250000   0.0721688   0.1690269), wk =   0.0007500
        k(  475) = (   0.0250000   0.0721688   0.1843930), wk =   0.0007500
        k(  476) = (   0.0250000   0.0721688   0.1997591), wk =   0.0007500
        k(  477) = (   0.0250000   0.0721688   0.2151251), wk =   0.0007500
        k(  478) = (   0.0250000   0.0721688   0.2304912), wk =   0.0007500
        k(  479) = (   0.0250000   0.0721688   0.2458573), wk =   0.0007500
        k(  480) = (   0.0250000   0.0721688   0.2612234), wk =   0.0007500
        k(  481) = (   0.0250000   0.0721688   0.2765895), wk =   0.0007500
        k(  482) = (   0.0250000   0.0721688   0.2919555), wk =   0.0007500
        k(  483) = (   0.0250000   0.0721688  -0.3073216), wk =   0.0003750
        k(  484) = (   0.0250000   0.1010363   0.0000000), wk =   0.0003750
        k(  485) = (   0.0250000   0.1010363   0.0153661), wk =   0.0007500
        k(  486) = (   0.0250000   0.1010363   0.0307322), wk =   0.0007500
        k(  487) = (   0.0250000   0.1010363   0.0460982), wk =   0.0007500
        k(  488) = (   0.0250000   0.1010363   0.0614643), wk =   0.0007500
        k(  489) = (   0.0250000   0.1010363   0.0768304), wk =   0.0007500
        k(  490) = (   0.0250000   0.1010363   0.0921965), wk =   0.0007500
        k(  491) = (   0.0250000   0.1010363   0.1075626), wk =   0.0007500
        k(  492) = (   0.0250000   0.1010363   0.1229287), wk =   0.0007500
        k(  493) = (   0.0250000   0.1010363   0.1382947), wk =   0.0007500
        k(  494) = (   0.0250000   0.1010363   0.1536608), wk =   0.0007500
        k(  495) = (   0.0250000   0.1010363   0.1690269), wk =   0.0007500
        k(  496) = (   0.0250000   0.1010363   0.1843930), wk =   0.0007500
        k(  497) = (   0.0250000   0.1010363   0.1997591), wk =   0.0007500
        k(  498) = (   0.0250000   0.1010363   0.2151251), wk =   0.0007500
        k(  499) = (   0.0250000   0.1010363   0.2304912), wk =   0.0007500
        k(  500) = (   0.0250000   0.1010363   0.2458573), wk =   0.0007500
        k(  501) = (   0.0250000   0.1010363   0.2612234), wk =   0.0007500
        k(  502) = (   0.0250000   0.1010363   0.2765895), wk =   0.0007500
        k(  503) = (   0.0250000   0.1010363   0.2919555), wk =   0.0007500
        k(  504) = (   0.0250000   0.1010363  -0.3073216), wk =   0.0003750
        k(  505) = (   0.0250000   0.1299038   0.0000000), wk =   0.0003750
        k(  506) = (   0.0250000   0.1299038   0.0153661), wk =   0.0007500
        k(  507) = (   0.0250000   0.1299038   0.0307322), wk =   0.0007500
        k(  508) = (   0.0250000   0.1299038   0.0460982), wk =   0.0007500
        k(  509) = (   0.0250000   0.1299038   0.0614643), wk =   0.0007500
        k(  510) = (   0.0250000   0.1299038   0.0768304), wk =   0.0007500
        k(  511) = (   0.0250000   0.1299038   0.0921965), wk =   0.0007500
        k(  512) = (   0.0250000   0.1299038   0.1075626), wk =   0.0007500
        k(  513) = (   0.0250000   0.1299038   0.1229287), wk =   0.0007500
        k(  514) = (   0.0250000   0.1299038   0.1382947), wk =   0.0007500
        k(  515) = (   0.0250000   0.1299038   0.1536608), wk =   0.0007500
        k(  516) = (   0.0250000   0.1299038   0.1690269), wk =   0.0007500
        k(  517) = (   0.0250000   0.1299038   0.1843930), wk =   0.0007500
        k(  518) = (   0.0250000   0.1299038   0.1997591), wk =   0.0007500
        k(  519) = (   0.0250000   0.1299038   0.2151251), wk =   0.0007500
        k(  520) = (   0.0250000   0.1299038   0.2304912), wk =   0.0007500
        k(  521) = (   0.0250000   0.1299038   0.2458573), wk =   0.0007500
        k(  522) = (   0.0250000   0.1299038   0.2612234), wk =   0.0007500
        k(  523) = (   0.0250000   0.1299038   0.2765895), wk =   0.0007500
        k(  524) = (   0.0250000   0.1299038   0.2919555), wk =   0.0007500
        k(  525) = (   0.0250000   0.1299038  -0.3073216), wk =   0.0003750
        k(  526) = (   0.0250000   0.1587713   0.0000000), wk =   0.0003750
        k(  527) = (   0.0250000   0.1587713   0.0153661), wk =   0.0007500
        k(  528) = (   0.0250000   0.1587713   0.0307322), wk =   0.0007500
        k(  529) = (   0.0250000   0.1587713   0.0460982), wk =   0.0007500
        k(  530) = (   0.0250000   0.1587713   0.0614643), wk =   0.0007500
        k(  531) = (   0.0250000   0.1587713   0.0768304), wk =   0.0007500
        k(  532) = (   0.0250000   0.1587713   0.0921965), wk =   0.0007500
        k(  533) = (   0.0250000   0.1587713   0.1075626), wk =   0.0007500
        k(  534) = (   0.0250000   0.1587713   0.1229287), wk =   0.0007500
        k(  535) = (   0.0250000   0.1587713   0.1382947), wk =   0.0007500
        k(  536) = (   0.0250000   0.1587713   0.1536608), wk =   0.0007500
        k(  537) = (   0.0250000   0.1587713   0.1690269), wk =   0.0007500
        k(  538) = (   0.0250000   0.1587713   0.1843930), wk =   0.0007500
        k(  539) = (   0.0250000   0.1587713   0.1997591), wk =   0.0007500
        k(  540) = (   0.0250000   0.1587713   0.2151251), wk =   0.0007500
        k(  541) = (   0.0250000   0.1587713   0.2304912), wk =   0.0007500
        k(  542) = (   0.0250000   0.1587713   0.2458573), wk =   0.0007500
        k(  543) = (   0.0250000   0.1587713   0.2612234), wk =   0.0007500
        k(  544) = (   0.0250000   0.1587713   0.2765895), wk =   0.0007500
        k(  545) = (   0.0250000   0.1587713   0.2919555), wk =   0.0007500
        k(  546) = (   0.0250000   0.1587713  -0.3073216), wk =   0.0003750
        k(  547) = (   0.0250000   0.1876388   0.0000000), wk =   0.0003750
        k(  548) = (   0.0250000   0.1876388   0.0153661), wk =   0.0007500
        k(  549) = (   0.0250000   0.1876388   0.0307322), wk =   0.0007500
        k(  550) = (   0.0250000   0.1876388   0.0460982), wk =   0.0007500
        k(  551) = (   0.0250000   0.1876388   0.0614643), wk =   0.0007500
        k(  552) = (   0.0250000   0.1876388   0.0768304), wk =   0.0007500
        k(  553) = (   0.0250000   0.1876388   0.0921965), wk =   0.0007500
        k(  554) = (   0.0250000   0.1876388   0.1075626), wk =   0.0007500
        k(  555) = (   0.0250000   0.1876388   0.1229287), wk =   0.0007500
        k(  556) = (   0.0250000   0.1876388   0.1382947), wk =   0.0007500
        k(  557) = (   0.0250000   0.1876388   0.1536608), wk =   0.0007500
        k(  558) = (   0.0250000   0.1876388   0.1690269), wk =   0.0007500
        k(  559) = (   0.0250000   0.1876388   0.1843930), wk =   0.0007500
        k(  560) = (   0.0250000   0.1876388   0.1997591), wk =   0.0007500
        k(  561) = (   0.0250000   0.1876388   0.2151251), wk =   0.0007500
        k(  562) = (   0.0250000   0.1876388   0.2304912), wk =   0.0007500
        k(  563) = (   0.0250000   0.1876388   0.2458573), wk =   0.0007500
        k(  564) = (   0.0250000   0.1876388   0.2612234), wk =   0.0007500
        k(  565) = (   0.0250000   0.1876388   0.2765895), wk =   0.0007500
        k(  566) = (   0.0250000   0.1876388   0.2919555), wk =   0.0007500
        k(  567) = (   0.0250000   0.1876388  -0.3073216), wk =   0.0003750
        k(  568) = (   0.0250000   0.2165064   0.0000000), wk =   0.0003750
        k(  569) = (   0.0250000   0.2165064   0.0153661), wk =   0.0007500
        k(  570) = (   0.0250000   0.2165064   0.0307322), wk =   0.0007500
        k(  571) = (   0.0250000   0.2165064   0.0460982), wk =   0.0007500
        k(  572) = (   0.0250000   0.2165064   0.0614643), wk =   0.0007500
        k(  573) = (   0.0250000   0.2165064   0.0768304), wk =   0.0007500
        k(  574) = (   0.0250000   0.2165064   0.0921965), wk =   0.0007500
        k(  575) = (   0.0250000   0.2165064   0.1075626), wk =   0.0007500
        k(  576) = (   0.0250000   0.2165064   0.1229287), wk =   0.0007500
        k(  577) = (   0.0250000   0.2165064   0.1382947), wk =   0.0007500
        k(  578) = (   0.0250000   0.2165064   0.1536608), wk =   0.0007500
        k(  579) = (   0.0250000   0.2165064   0.1690269), wk =   0.0007500
        k(  580) = (   0.0250000   0.2165064   0.1843930), wk =   0.0007500
        k(  581) = (   0.0250000   0.2165064   0.1997591), wk =   0.0007500
        k(  582) = (   0.0250000   0.2165064   0.2151251), wk =   0.0007500
        k(  583) = (   0.0250000   0.2165064   0.2304912), wk =   0.0007500
        k(  584) = (   0.0250000   0.2165064   0.2458573), wk =   0.0007500
        k(  585) = (   0.0250000   0.2165064   0.2612234), wk =   0.0007500
        k(  586) = (   0.0250000   0.2165064   0.2765895), wk =   0.0007500
        k(  587) = (   0.0250000   0.2165064   0.2919555), wk =   0.0007500
        k(  588) = (   0.0250000   0.2165064  -0.3073216), wk =   0.0003750
        k(  589) = (   0.0250000   0.2453739   0.0000000), wk =   0.0003750
        k(  590) = (   0.0250000   0.2453739   0.0153661), wk =   0.0007500
        k(  591) = (   0.0250000   0.2453739   0.0307322), wk =   0.0007500
        k(  592) = (   0.0250000   0.2453739   0.0460982), wk =   0.0007500
        k(  593) = (   0.0250000   0.2453739   0.0614643), wk =   0.0007500
        k(  594) = (   0.0250000   0.2453739   0.0768304), wk =   0.0007500
        k(  595) = (   0.0250000   0.2453739   0.0921965), wk =   0.0007500
        k(  596) = (   0.0250000   0.2453739   0.1075626), wk =   0.0007500
        k(  597) = (   0.0250000   0.2453739   0.1229287), wk =   0.0007500
        k(  598) = (   0.0250000   0.2453739   0.1382947), wk =   0.0007500
        k(  599) = (   0.0250000   0.2453739   0.1536608), wk =   0.0007500
        k(  600) = (   0.0250000   0.2453739   0.1690269), wk =   0.0007500
        k(  601) = (   0.0250000   0.2453739   0.1843930), wk =   0.0007500
        k(  602) = (   0.0250000   0.2453739   0.1997591), wk =   0.0007500
        k(  603) = (   0.0250000   0.2453739   0.2151251), wk =   0.0007500
        k(  604) = (   0.0250000   0.2453739   0.2304912), wk =   0.0007500
        k(  605) = (   0.0250000   0.2453739   0.2458573), wk =   0.0007500
        k(  606) = (   0.0250000   0.2453739   0.2612234), wk =   0.0007500
        k(  607) = (   0.0250000   0.2453739   0.2765895), wk =   0.0007500
        k(  608) = (   0.0250000   0.2453739   0.2919555), wk =   0.0007500
        k(  609) = (   0.0250000   0.2453739  -0.3073216), wk =   0.0003750
        k(  610) = (   0.0250000   0.2742414   0.0000000), wk =   0.0003750
        k(  611) = (   0.0250000   0.2742414   0.0153661), wk =   0.0007500
        k(  612) = (   0.0250000   0.2742414   0.0307322), wk =   0.0007500
        k(  613) = (   0.0250000   0.2742414   0.0460982), wk =   0.0007500
        k(  614) = (   0.0250000   0.2742414   0.0614643), wk =   0.0007500
        k(  615) = (   0.0250000   0.2742414   0.0768304), wk =   0.0007500
        k(  616) = (   0.0250000   0.2742414   0.0921965), wk =   0.0007500
        k(  617) = (   0.0250000   0.2742414   0.1075626), wk =   0.0007500
        k(  618) = (   0.0250000   0.2742414   0.1229287), wk =   0.0007500
        k(  619) = (   0.0250000   0.2742414   0.1382947), wk =   0.0007500
        k(  620) = (   0.0250000   0.2742414   0.1536608), wk =   0.0007500
        k(  621) = (   0.0250000   0.2742414   0.1690269), wk =   0.0007500
        k(  622) = (   0.0250000   0.2742414   0.1843930), wk =   0.0007500
        k(  623) = (   0.0250000   0.2742414   0.1997591), wk =   0.0007500
        k(  624) = (   0.0250000   0.2742414   0.2151251), wk =   0.0007500
        k(  625) = (   0.0250000   0.2742414   0.2304912), wk =   0.0007500
        k(  626) = (   0.0250000   0.2742414   0.2458573), wk =   0.0007500
        k(  627) = (   0.0250000   0.2742414   0.2612234), wk =   0.0007500
        k(  628) = (   0.0250000   0.2742414   0.2765895), wk =   0.0007500
        k(  629) = (   0.0250000   0.2742414   0.2919555), wk =   0.0007500
        k(  630) = (   0.0250000   0.2742414  -0.3073216), wk =   0.0003750
        k(  631) = (   0.0250000   0.3031089   0.0000000), wk =   0.0003750
        k(  632) = (   0.0250000   0.3031089   0.0153661), wk =   0.0007500
        k(  633) = (   0.0250000   0.3031089   0.0307322), wk =   0.0007500
        k(  634) = (   0.0250000   0.3031089   0.0460982), wk =   0.0007500
        k(  635) = (   0.0250000   0.3031089   0.0614643), wk =   0.0007500
        k(  636) = (   0.0250000   0.3031089   0.0768304), wk =   0.0007500
        k(  637) = (   0.0250000   0.3031089   0.0921965), wk =   0.0007500
        k(  638) = (   0.0250000   0.3031089   0.1075626), wk =   0.0007500
        k(  639) = (   0.0250000   0.3031089   0.1229287), wk =   0.0007500
        k(  640) = (   0.0250000   0.3031089   0.1382947), wk =   0.0007500
        k(  641) = (   0.0250000   0.3031089   0.1536608), wk =   0.0007500
        k(  642) = (   0.0250000   0.3031089   0.1690269), wk =   0.0007500
        k(  643) = (   0.0250000   0.3031089   0.1843930), wk =   0.0007500
        k(  644) = (   0.0250000   0.3031089   0.1997591), wk =   0.0007500
        k(  645) = (   0.0250000   0.3031089   0.2151251), wk =   0.0007500
        k(  646) = (   0.0250000   0.3031089   0.2304912), wk =   0.0007500
        k(  647) = (   0.0250000   0.3031089   0.2458573), wk =   0.0007500
        k(  648) = (   0.0250000   0.3031089   0.2612234), wk =   0.0007500
        k(  649) = (   0.0250000   0.3031089   0.2765895), wk =   0.0007500
        k(  650) = (   0.0250000   0.3031089   0.2919555), wk =   0.0007500
        k(  651) = (   0.0250000   0.3031089  -0.3073216), wk =   0.0003750
        k(  652) = (   0.0250000   0.3319764   0.0000000), wk =   0.0003750
        k(  653) = (   0.0250000   0.3319764   0.0153661), wk =   0.0007500
        k(  654) = (   0.0250000   0.3319764   0.0307322), wk =   0.0007500
        k(  655) = (   0.0250000   0.3319764   0.0460982), wk =   0.0007500
        k(  656) = (   0.0250000   0.3319764   0.0614643), wk =   0.0007500
        k(  657) = (   0.0250000   0.3319764   0.0768304), wk =   0.0007500
        k(  658) = (   0.0250000   0.3319764   0.0921965), wk =   0.0007500
        k(  659) = (   0.0250000   0.3319764   0.1075626), wk =   0.0007500
        k(  660) = (   0.0250000   0.3319764   0.1229287), wk =   0.0007500
        k(  661) = (   0.0250000   0.3319764   0.1382947), wk =   0.0007500
        k(  662) = (   0.0250000   0.3319764   0.1536608), wk =   0.0007500
        k(  663) = (   0.0250000   0.3319764   0.1690269), wk =   0.0007500
        k(  664) = (   0.0250000   0.3319764   0.1843930), wk =   0.0007500
        k(  665) = (   0.0250000   0.3319764   0.1997591), wk =   0.0007500
        k(  666) = (   0.0250000   0.3319764   0.2151251), wk =   0.0007500
        k(  667) = (   0.0250000   0.3319764   0.2304912), wk =   0.0007500
        k(  668) = (   0.0250000   0.3319764   0.2458573), wk =   0.0007500
        k(  669) = (   0.0250000   0.3319764   0.2612234), wk =   0.0007500
        k(  670) = (   0.0250000   0.3319764   0.2765895), wk =   0.0007500
        k(  671) = (   0.0250000   0.3319764   0.2919555), wk =   0.0007500
        k(  672) = (   0.0250000   0.3319764  -0.3073216), wk =   0.0003750
        k(  673) = (   0.0250000   0.3608439   0.0000000), wk =   0.0003750
        k(  674) = (   0.0250000   0.3608439   0.0153661), wk =   0.0007500
        k(  675) = (   0.0250000   0.3608439   0.0307322), wk =   0.0007500
        k(  676) = (   0.0250000   0.3608439   0.0460982), wk =   0.0007500
        k(  677) = (   0.0250000   0.3608439   0.0614643), wk =   0.0007500
        k(  678) = (   0.0250000   0.3608439   0.0768304), wk =   0.0007500
        k(  679) = (   0.0250000   0.3608439   0.0921965), wk =   0.0007500
        k(  680) = (   0.0250000   0.3608439   0.1075626), wk =   0.0007500
        k(  681) = (   0.0250000   0.3608439   0.1229287), wk =   0.0007500
        k(  682) = (   0.0250000   0.3608439   0.1382947), wk =   0.0007500
        k(  683) = (   0.0250000   0.3608439   0.1536608), wk =   0.0007500
        k(  684) = (   0.0250000   0.3608439   0.1690269), wk =   0.0007500
        k(  685) = (   0.0250000   0.3608439   0.1843930), wk =   0.0007500
        k(  686) = (   0.0250000   0.3608439   0.1997591), wk =   0.0007500
        k(  687) = (   0.0250000   0.3608439   0.2151251), wk =   0.0007500
        k(  688) = (   0.0250000   0.3608439   0.2304912), wk =   0.0007500
        k(  689) = (   0.0250000   0.3608439   0.2458573), wk =   0.0007500
        k(  690) = (   0.0250000   0.3608439   0.2612234), wk =   0.0007500
        k(  691) = (   0.0250000   0.3608439   0.2765895), wk =   0.0007500
        k(  692) = (   0.0250000   0.3608439   0.2919555), wk =   0.0007500
        k(  693) = (   0.0250000   0.3608439  -0.3073216), wk =   0.0003750
        k(  694) = (   0.0250000   0.3897114   0.0000000), wk =   0.0003750
        k(  695) = (   0.0250000   0.3897114   0.0153661), wk =   0.0007500
        k(  696) = (   0.0250000   0.3897114   0.0307322), wk =   0.0007500
        k(  697) = (   0.0250000   0.3897114   0.0460982), wk =   0.0007500
        k(  698) = (   0.0250000   0.3897114   0.0614643), wk =   0.0007500
        k(  699) = (   0.0250000   0.3897114   0.0768304), wk =   0.0007500
        k(  700) = (   0.0250000   0.3897114   0.0921965), wk =   0.0007500
        k(  701) = (   0.0250000   0.3897114   0.1075626), wk =   0.0007500
        k(  702) = (   0.0250000   0.3897114   0.1229287), wk =   0.0007500
        k(  703) = (   0.0250000   0.3897114   0.1382947), wk =   0.0007500
        k(  704) = (   0.0250000   0.3897114   0.1536608), wk =   0.0007500
        k(  705) = (   0.0250000   0.3897114   0.1690269), wk =   0.0007500
        k(  706) = (   0.0250000   0.3897114   0.1843930), wk =   0.0007500
        k(  707) = (   0.0250000   0.3897114   0.1997591), wk =   0.0007500
        k(  708) = (   0.0250000   0.3897114   0.2151251), wk =   0.0007500
        k(  709) = (   0.0250000   0.3897114   0.2304912), wk =   0.0007500
        k(  710) = (   0.0250000   0.3897114   0.2458573), wk =   0.0007500
        k(  711) = (   0.0250000   0.3897114   0.2612234), wk =   0.0007500
        k(  712) = (   0.0250000   0.3897114   0.2765895), wk =   0.0007500
        k(  713) = (   0.0250000   0.3897114   0.2919555), wk =   0.0007500
        k(  714) = (   0.0250000   0.3897114  -0.3073216), wk =   0.0003750
        k(  715) = (   0.0250000   0.4185789   0.0000000), wk =   0.0003750
        k(  716) = (   0.0250000   0.4185789   0.0153661), wk =   0.0007500
        k(  717) = (   0.0250000   0.4185789   0.0307322), wk =   0.0007500
        k(  718) = (   0.0250000   0.4185789   0.0460982), wk =   0.0007500
        k(  719) = (   0.0250000   0.4185789   0.0614643), wk =   0.0007500
        k(  720) = (   0.0250000   0.4185789   0.0768304), wk =   0.0007500
        k(  721) = (   0.0250000   0.4185789   0.0921965), wk =   0.0007500
        k(  722) = (   0.0250000   0.4185789   0.1075626), wk =   0.0007500
        k(  723) = (   0.0250000   0.4185789   0.1229287), wk =   0.0007500
        k(  724) = (   0.0250000   0.4185789   0.1382947), wk =   0.0007500
        k(  725) = (   0.0250000   0.4185789   0.1536608), wk =   0.0007500
        k(  726) = (   0.0250000   0.4185789   0.1690269), wk =   0.0007500
        k(  727) = (   0.0250000   0.4185789   0.1843930), wk =   0.0007500
        k(  728) = (   0.0250000   0.4185789   0.1997591), wk =   0.0007500
        k(  729) = (   0.0250000   0.4185789   0.2151251), wk =   0.0007500
        k(  730) = (   0.0250000   0.4185789   0.2304912), wk =   0.0007500
        k(  731) = (   0.0250000   0.4185789   0.2458573), wk =   0.0007500
        k(  732) = (   0.0250000   0.4185789   0.2612234), wk =   0.0007500
        k(  733) = (   0.0250000   0.4185789   0.2765895), wk =   0.0007500
        k(  734) = (   0.0250000   0.4185789   0.2919555), wk =   0.0007500
        k(  735) = (   0.0250000   0.4185789  -0.3073216), wk =   0.0003750
        k(  736) = (   0.0250000   0.4474465   0.0000000), wk =   0.0003750
        k(  737) = (   0.0250000   0.4474465   0.0153661), wk =   0.0007500
        k(  738) = (   0.0250000   0.4474465   0.0307322), wk =   0.0007500
        k(  739) = (   0.0250000   0.4474465   0.0460982), wk =   0.0007500
        k(  740) = (   0.0250000   0.4474465   0.0614643), wk =   0.0007500
        k(  741) = (   0.0250000   0.4474465   0.0768304), wk =   0.0007500
        k(  742) = (   0.0250000   0.4474465   0.0921965), wk =   0.0007500
        k(  743) = (   0.0250000   0.4474465   0.1075626), wk =   0.0007500
        k(  744) = (   0.0250000   0.4474465   0.1229287), wk =   0.0007500
        k(  745) = (   0.0250000   0.4474465   0.1382947), wk =   0.0007500
        k(  746) = (   0.0250000   0.4474465   0.1536608), wk =   0.0007500
        k(  747) = (   0.0250000   0.4474465   0.1690269), wk =   0.0007500
        k(  748) = (   0.0250000   0.4474465   0.1843930), wk =   0.0007500
        k(  749) = (   0.0250000   0.4474465   0.1997591), wk =   0.0007500
        k(  750) = (   0.0250000   0.4474465   0.2151251), wk =   0.0007500
        k(  751) = (   0.0250000   0.4474465   0.2304912), wk =   0.0007500
        k(  752) = (   0.0250000   0.4474465   0.2458573), wk =   0.0007500
        k(  753) = (   0.0250000   0.4474465   0.2612234), wk =   0.0007500
        k(  754) = (   0.0250000   0.4474465   0.2765895), wk =   0.0007500
        k(  755) = (   0.0250000   0.4474465   0.2919555), wk =   0.0007500
        k(  756) = (   0.0250000   0.4474465  -0.3073216), wk =   0.0003750
        k(  757) = (   0.0250000   0.4763140   0.0000000), wk =   0.0003750
        k(  758) = (   0.0250000   0.4763140   0.0153661), wk =   0.0007500
        k(  759) = (   0.0250000   0.4763140   0.0307322), wk =   0.0007500
        k(  760) = (   0.0250000   0.4763140   0.0460982), wk =   0.0007500
        k(  761) = (   0.0250000   0.4763140   0.0614643), wk =   0.0007500
        k(  762) = (   0.0250000   0.4763140   0.0768304), wk =   0.0007500
        k(  763) = (   0.0250000   0.4763140   0.0921965), wk =   0.0007500
        k(  764) = (   0.0250000   0.4763140   0.1075626), wk =   0.0007500
        k(  765) = (   0.0250000   0.4763140   0.1229287), wk =   0.0007500
        k(  766) = (   0.0250000   0.4763140   0.1382947), wk =   0.0007500
        k(  767) = (   0.0250000   0.4763140   0.1536608), wk =   0.0007500
        k(  768) = (   0.0250000   0.4763140   0.1690269), wk =   0.0007500
        k(  769) = (   0.0250000   0.4763140   0.1843930), wk =   0.0007500
        k(  770) = (   0.0250000   0.4763140   0.1997591), wk =   0.0007500
        k(  771) = (   0.0250000   0.4763140   0.2151251), wk =   0.0007500
        k(  772) = (   0.0250000   0.4763140   0.2304912), wk =   0.0007500
        k(  773) = (   0.0250000   0.4763140   0.2458573), wk =   0.0007500
        k(  774) = (   0.0250000   0.4763140   0.2612234), wk =   0.0007500
        k(  775) = (   0.0250000   0.4763140   0.2765895), wk =   0.0007500
        k(  776) = (   0.0250000   0.4763140   0.2919555), wk =   0.0007500
        k(  777) = (   0.0250000   0.4763140  -0.3073216), wk =   0.0003750
        k(  778) = (   0.0250000   0.5051815   0.0000000), wk =   0.0003750
        k(  779) = (   0.0250000   0.5051815   0.0153661), wk =   0.0007500
        k(  780) = (   0.0250000   0.5051815   0.0307322), wk =   0.0007500
        k(  781) = (   0.0250000   0.5051815   0.0460982), wk =   0.0007500
        k(  782) = (   0.0250000   0.5051815   0.0614643), wk =   0.0007500
        k(  783) = (   0.0250000   0.5051815   0.0768304), wk =   0.0007500
        k(  784) = (   0.0250000   0.5051815   0.0921965), wk =   0.0007500
        k(  785) = (   0.0250000   0.5051815   0.1075626), wk =   0.0007500
        k(  786) = (   0.0250000   0.5051815   0.1229287), wk =   0.0007500
        k(  787) = (   0.0250000   0.5051815   0.1382947), wk =   0.0007500
        k(  788) = (   0.0250000   0.5051815   0.1536608), wk =   0.0007500
        k(  789) = (   0.0250000   0.5051815   0.1690269), wk =   0.0007500
        k(  790) = (   0.0250000   0.5051815   0.1843930), wk =   0.0007500
        k(  791) = (   0.0250000   0.5051815   0.1997591), wk =   0.0007500
        k(  792) = (   0.0250000   0.5051815   0.2151251), wk =   0.0007500
        k(  793) = (   0.0250000   0.5051815   0.2304912), wk =   0.0007500
        k(  794) = (   0.0250000   0.5051815   0.2458573), wk =   0.0007500
        k(  795) = (   0.0250000   0.5051815   0.2612234), wk =   0.0007500
        k(  796) = (   0.0250000   0.5051815   0.2765895), wk =   0.0007500
        k(  797) = (   0.0250000   0.5051815   0.2919555), wk =   0.0007500
        k(  798) = (   0.0250000   0.5051815  -0.3073216), wk =   0.0003750
        k(  799) = (   0.0250000   0.5340490   0.0000000), wk =   0.0003750
        k(  800) = (   0.0250000   0.5340490   0.0153661), wk =   0.0007500
        k(  801) = (   0.0250000   0.5340490   0.0307322), wk =   0.0007500
        k(  802) = (   0.0250000   0.5340490   0.0460982), wk =   0.0007500
        k(  803) = (   0.0250000   0.5340490   0.0614643), wk =   0.0007500
        k(  804) = (   0.0250000   0.5340490   0.0768304), wk =   0.0007500
        k(  805) = (   0.0250000   0.5340490   0.0921965), wk =   0.0007500
        k(  806) = (   0.0250000   0.5340490   0.1075626), wk =   0.0007500
        k(  807) = (   0.0250000   0.5340490   0.1229287), wk =   0.0007500
        k(  808) = (   0.0250000   0.5340490   0.1382947), wk =   0.0007500
        k(  809) = (   0.0250000   0.5340490   0.1536608), wk =   0.0007500
        k(  810) = (   0.0250000   0.5340490   0.1690269), wk =   0.0007500
        k(  811) = (   0.0250000   0.5340490   0.1843930), wk =   0.0007500
        k(  812) = (   0.0250000   0.5340490   0.1997591), wk =   0.0007500
        k(  813) = (   0.0250000   0.5340490   0.2151251), wk =   0.0007500
        k(  814) = (   0.0250000   0.5340490   0.2304912), wk =   0.0007500
        k(  815) = (   0.0250000   0.5340490   0.2458573), wk =   0.0007500
        k(  816) = (   0.0250000   0.5340490   0.2612234), wk =   0.0007500
        k(  817) = (   0.0250000   0.5340490   0.2765895), wk =   0.0007500
        k(  818) = (   0.0250000   0.5340490   0.2919555), wk =   0.0007500
        k(  819) = (   0.0250000   0.5340490  -0.3073216), wk =   0.0003750
        k(  820) = (   0.0250000   0.5629165   0.0000000), wk =   0.0003750
        k(  821) = (   0.0250000   0.5629165   0.0153661), wk =   0.0007500
        k(  822) = (   0.0250000   0.5629165   0.0307322), wk =   0.0007500
        k(  823) = (   0.0250000   0.5629165   0.0460982), wk =   0.0007500
        k(  824) = (   0.0250000   0.5629165   0.0614643), wk =   0.0007500
        k(  825) = (   0.0250000   0.5629165   0.0768304), wk =   0.0007500
        k(  826) = (   0.0250000   0.5629165   0.0921965), wk =   0.0007500
        k(  827) = (   0.0250000   0.5629165   0.1075626), wk =   0.0007500
        k(  828) = (   0.0250000   0.5629165   0.1229287), wk =   0.0007500
        k(  829) = (   0.0250000   0.5629165   0.1382947), wk =   0.0007500
        k(  830) = (   0.0250000   0.5629165   0.1536608), wk =   0.0007500
        k(  831) = (   0.0250000   0.5629165   0.1690269), wk =   0.0007500
        k(  832) = (   0.0250000   0.5629165   0.1843930), wk =   0.0007500
        k(  833) = (   0.0250000   0.5629165   0.1997591), wk =   0.0007500
        k(  834) = (   0.0250000   0.5629165   0.2151251), wk =   0.0007500
        k(  835) = (   0.0250000   0.5629165   0.2304912), wk =   0.0007500
        k(  836) = (   0.0250000   0.5629165   0.2458573), wk =   0.0007500
        k(  837) = (   0.0250000   0.5629165   0.2612234), wk =   0.0007500
        k(  838) = (   0.0250000   0.5629165   0.2765895), wk =   0.0007500
        k(  839) = (   0.0250000   0.5629165   0.2919555), wk =   0.0007500
        k(  840) = (   0.0250000   0.5629165  -0.3073216), wk =   0.0003750
        k(  841) = (   0.0500000   0.0866025   0.0000000), wk =   0.0001875
        k(  842) = (   0.0500000   0.0866025   0.0153661), wk =   0.0003750
        k(  843) = (   0.0500000   0.0866025   0.0307322), wk =   0.0003750
        k(  844) = (   0.0500000   0.0866025   0.0460982), wk =   0.0003750
        k(  845) = (   0.0500000   0.0866025   0.0614643), wk =   0.0003750
        k(  846) = (   0.0500000   0.0866025   0.0768304), wk =   0.0003750
        k(  847) = (   0.0500000   0.0866025   0.0921965), wk =   0.0003750
        k(  848) = (   0.0500000   0.0866025   0.1075626), wk =   0.0003750
        k(  849) = (   0.0500000   0.0866025   0.1229287), wk =   0.0003750
        k(  850) = (   0.0500000   0.0866025   0.1382947), wk =   0.0003750
        k(  851) = (   0.0500000   0.0866025   0.1536608), wk =   0.0003750
        k(  852) = (   0.0500000   0.0866025   0.1690269), wk =   0.0003750
        k(  853) = (   0.0500000   0.0866025   0.1843930), wk =   0.0003750
        k(  854) = (   0.0500000   0.0866025   0.1997591), wk =   0.0003750
        k(  855) = (   0.0500000   0.0866025   0.2151251), wk =   0.0003750
        k(  856) = (   0.0500000   0.0866025   0.2304912), wk =   0.0003750
        k(  857) = (   0.0500000   0.0866025   0.2458573), wk =   0.0003750
        k(  858) = (   0.0500000   0.0866025   0.2612234), wk =   0.0003750
        k(  859) = (   0.0500000   0.0866025   0.2765895), wk =   0.0003750
        k(  860) = (   0.0500000   0.0866025   0.2919555), wk =   0.0003750
        k(  861) = (   0.0500000   0.0866025  -0.3073216), wk =   0.0001875
        k(  862) = (   0.0500000   0.1154701   0.0000000), wk =   0.0003750
        k(  863) = (   0.0500000   0.1154701   0.0153661), wk =   0.0007500
        k(  864) = (   0.0500000   0.1154701   0.0307322), wk =   0.0007500
        k(  865) = (   0.0500000   0.1154701   0.0460982), wk =   0.0007500
        k(  866) = (   0.0500000   0.1154701   0.0614643), wk =   0.0007500
        k(  867) = (   0.0500000   0.1154701   0.0768304), wk =   0.0007500
        k(  868) = (   0.0500000   0.1154701   0.0921965), wk =   0.0007500
        k(  869) = (   0.0500000   0.1154701   0.1075626), wk =   0.0007500
        k(  870) = (   0.0500000   0.1154701   0.1229287), wk =   0.0007500
        k(  871) = (   0.0500000   0.1154701   0.1382947), wk =   0.0007500
        k(  872) = (   0.0500000   0.1154701   0.1536608), wk =   0.0007500
        k(  873) = (   0.0500000   0.1154701   0.1690269), wk =   0.0007500
        k(  874) = (   0.0500000   0.1154701   0.1843930), wk =   0.0007500
        k(  875) = (   0.0500000   0.1154701   0.1997591), wk =   0.0007500
        k(  876) = (   0.0500000   0.1154701   0.2151251), wk =   0.0007500
        k(  877) = (   0.0500000   0.1154701   0.2304912), wk =   0.0007500
        k(  878) = (   0.0500000   0.1154701   0.2458573), wk =   0.0007500
        k(  879) = (   0.0500000   0.1154701   0.2612234), wk =   0.0007500
        k(  880) = (   0.0500000   0.1154701   0.2765895), wk =   0.0007500
        k(  881) = (   0.0500000   0.1154701   0.2919555), wk =   0.0007500
        k(  882) = (   0.0500000   0.1154701  -0.3073216), wk =   0.0003750
        k(  883) = (   0.0500000   0.1443376   0.0000000), wk =   0.0003750
        k(  884) = (   0.0500000   0.1443376   0.0153661), wk =   0.0007500
        k(  885) = (   0.0500000   0.1443376   0.0307322), wk =   0.0007500
        k(  886) = (   0.0500000   0.1443376   0.0460982), wk =   0.0007500
        k(  887) = (   0.0500000   0.1443376   0.0614643), wk =   0.0007500
        k(  888) = (   0.0500000   0.1443376   0.0768304), wk =   0.0007500
        k(  889) = (   0.0500000   0.1443376   0.0921965), wk =   0.0007500
        k(  890) = (   0.0500000   0.1443376   0.1075626), wk =   0.0007500
        k(  891) = (   0.0500000   0.1443376   0.1229287), wk =   0.0007500
        k(  892) = (   0.0500000   0.1443376   0.1382947), wk =   0.0007500
        k(  893) = (   0.0500000   0.1443376   0.1536608), wk =   0.0007500
        k(  894) = (   0.0500000   0.1443376   0.1690269), wk =   0.0007500
        k(  895) = (   0.0500000   0.1443376   0.1843930), wk =   0.0007500
        k(  896) = (   0.0500000   0.1443376   0.1997591), wk =   0.0007500
        k(  897) = (   0.0500000   0.1443376   0.2151251), wk =   0.0007500
[...]
     1.0000   1.0000   1.0000   1.0000   1.0000   1.0000   1.0000   1.0000
     1.0000   1.0000   1.0000   1.0000   1.0000   1.0000   1.0000   1.0000
     1.0000   1.0000

          k = 0.3000 0.5774 0.0615 ( 14744 PWs)   bands (ev):

    -4.3585  -4.3367  -2.9267  -2.7591  -2.7404  -2.7181  -2.6955  -2.6829
    -2.6577  -2.6193  -0.9424  -0.7970   5.0293   5.2727   5.5202   7.6545
     7.8573   8.0042

     occupation numbers 
     1.0000   1.0000   1.0000   1.0000   1.0000   1.0000   1.0000   1.0000
     1.0000   1.0000   1.0000   1.0000   1.0000   1.0000   1.0000   1.0000
     1.0000   1.0000

          k = 0.3000 0.5774 0.0768 ( 14766 PWs)   bands (ev):

    -4.3560  -4.3347  -2.9231  -2.7645  -2.7470  -2.7185  -2.6913  -2.6779
    -2.6577  -2.6229  -0.9400  -0.7985   4.9873   5.2172   5.5368   7.7431
     7.8125   8.0818

     occupation numbers 
     1.0000   1.0000   1.0000   1.0000   1.0000   1.0000   1.0000   1.0000
     1.0000   1.0000   1.0000   1.0000   1.0000   1.0000   1.0000   1.0000
     1.0000   1.0000

          k = 0.3000 0.5774 0.0922 ( 14760 PWs)   bands (ev):

    -4.3529  -4.3325  -2.9188  -2.7701  -2.7537  -2.7192  -2.6872  -2.6732
    -2.6577  -2.6270  -0.9372  -0.8002   4.9387   5.1554   5.5607   7.7569
     7.8440   8.1719

     occupation numbers 
     1.0000   1.0000   1.0000   1.0000   1.0000   1.0000   1.0000   1.0000
     1.0000   1.0000   1.0000   1.0000   1.0000   1.0000   1.0000   1.0000
     1.0000   1.0000

          k = 0.3000 0.5774 0.1076 ( 14756 PWs)   bands (ev):

    -4.3495  -4.3300  -2.9137  -2.7757  -2.7605  -2.7201  -2.6833  -2.6687
    -2.6576  -2.6316  -0.9338  -0.8024   4.8858   5.0895   5.5918   7.6926
     7.9541   8.2705

     occupation numbers 
     1.0000   1.0000   1.0000   1.0000   1.0000   1.0000   1.0000   1.0000
     1.0000   1.0000   1.0000   1.0000   1.0000   1.0000   1.0000   1.0000
     1.0000   1.0000

          k = 0.3000 0.5774 0.1229 ( 14757 PWs)   bands (ev):

    -4.3458  -4.3273  -2.9080  -2.7813  -2.7672  -2.7214  -2.6798  -2.6646
    -2.6572  -2.6365  -0.9300  -0.8049   4.8309   5.0216   5.6300   7.6207
     8.0707   8.3742

     occupation numbers 
     1.0000   1.0000   1.0000   1.0000   1.0000   1.0000   1.0000   1.0000
     1.0000   1.0000   1.0000   1.0000   1.0000   1.0000   1.0000   1.0000
     1.0000   1.0000

          k = 0.3000 0.5774 0.1383 ( 14750 PWs)   bands (ev):

    -4.3418  -4.3244  -2.9015  -2.7867  -2.7737  -2.7232  -2.6768  -2.6610
    -2.6566  -2.6414  -0.9257  -0.8077   4.7758   4.9534   5.6747   7.5423
     8.1913   8.4804

     occupation numbers 
     1.0000   1.0000   1.0000   1.0000   1.0000   1.0000   1.0000   1.0000
     1.0000   1.0000   1.0000   1.0000   1.0000   1.0000   1.0000   1.0000
     1.0000   1.0000

          k = 0.3000 0.5774 0.1537 ( 14735 PWs)   bands (ev):

    -4.3377  -4.3216  -2.8945  -2.7919  -2.7800  -2.7257  -2.6745  -2.6582
    -2.6556  -2.6459  -0.9211  -0.8110   4.7223   4.8863   5.7256   7.4583
     8.3134   8.5864

     occupation numbers 
     1.0000   1.0000   1.0000   1.0000   1.0000   1.0000   1.0000   1.0000
     1.0000   1.0000   1.0000   1.0000   1.0000   1.0000   1.0000   1.0000
     1.0000   1.0000

          k = 0.3000 0.5774 0.1690 ( 14739 PWs)   bands (ev):

    -4.3335  -4.3187  -2.8868  -2.7968  -2.7860  -2.7289  -2.6729  -2.6574
    -2.6541  -2.6485  -0.9160  -0.8146   4.6717   4.8217   5.7823   7.3698
     8.4347   8.6897

     occupation numbers 
     1.0000   1.0000   1.0000   1.0000   1.0000   1.0000   1.0000   1.0000
     1.0000   1.0000   1.0000   1.0000   1.0000   1.0000   1.0000   1.0000
     1.0000   1.0000

          k = 0.3000 0.5774 0.1844 ( 14746 PWs)   bands (ev):

    -4.3293  -4.3160  -2.8786  -2.8012  -2.7917  -2.7330  -2.6720  -2.6596
    -2.6524  -2.6481  -0.9107  -0.8185   4.6251   4.7605   5.8444   7.2775
     8.5531   8.7880

     occupation numbers 
     1.0000   1.0000   1.0000   1.0000   1.0000   1.0000   1.0000   1.0000
     1.0000   1.0000   1.0000   1.0000   1.0000   1.0000   1.0000   1.0000
     1.0000   1.0000

          k = 0.3000 0.5774 0.1998 ( 14743 PWs)   bands (ev):

    -4.3253  -4.3134  -2.8699  -2.8052  -2.7970  -2.7382  -2.6716  -2.6628
    -2.6504  -2.6464  -0.9050  -0.8228   4.5835   4.7036   5.9117   7.1824
     8.6664   8.8789

     occupation numbers 
     1.0000   1.0000   1.0000   1.0000   1.0000   1.0000   1.0000   1.0000
     1.0000   1.0000   1.0000   1.0000   1.0000   1.0000   1.0000   1.0000
     1.0000   1.0000

          k = 0.3000 0.5774 0.2151 ( 14733 PWs)   bands (ev):

    -4.3215  -4.3112  -2.8607  -2.8087  -2.8017  -2.7445  -2.6715  -2.6658
    -2.6484  -2.6447  -0.8991  -0.8275   4.5475   4.6518   5.9837   7.0852
     8.7725   8.9604

     occupation numbers 
     1.0000   1.0000   1.0000   1.0000   1.0000   1.0000   1.0000   1.0000
     1.0000   1.0000   1.0000   1.0000   1.0000   1.0000   1.0000   1.0000
     1.0000   1.0000

          k = 0.3000 0.5774 0.2305 ( 14741 PWs)   bands (ev):

    -4.3179  -4.3093  -2.8512  -2.8116  -2.8060  -2.7517  -2.6716  -2.6682
    -2.6465  -2.6432  -0.8930  -0.8325   4.5177   4.6055   6.0602   6.9867
     8.8694   9.0304

     occupation numbers 
     1.0000   1.0000   1.0000   1.0000   1.0000   1.0000   1.0000   1.0000
     1.0000   1.0000   1.0000   1.0000   1.0000   1.0000   1.0000   1.0000
     1.0000   1.0000

          k = 0.3000 0.5774 0.2459 ( 14742 PWs)   bands (ev):

    -4.3147  -4.3078  -2.8415  -2.8138  -2.8097  -2.7599  -2.6719  -2.6701
    -2.6448  -2.6420  -0.8868  -0.8378   4.4944   4.5653   6.1408   6.8876
     8.9552   9.0870

     occupation numbers 
     1.0000   1.0000   1.0000   1.0000   1.0000   1.0000   1.0000   1.0000
     1.0000   1.0000   1.0000   1.0000   1.0000   1.0000   1.0000   1.0000
     1.0000   1.0000

          k = 0.3000 0.5774 0.2612 ( 14741 PWs)   bands (ev):

    -4.3120  -4.3067  -2.8318  -2.8150  -2.8128  -2.7689  -2.6722  -2.6713
    -2.6433  -2.6411  -0.8805  -0.8434   4.4781   4.5317   6.2252   6.7885
     9.0280   9.1288

     occupation numbers 
     1.0000   1.0000   1.0000   1.0000   1.0000   1.0000   1.0000   1.0000
     1.0000   1.0000   1.0000   1.0000   1.0000   1.0000   1.0000   1.0000
     1.0000   1.0000

          k = 0.3000 0.5774 0.2766 ( 14752 PWs)   bands (ev):

    -4.3097  -4.3062  -2.8234  -2.8153  -2.8141  -2.7784  -2.6725  -2.6721
    -2.6421  -2.6406  -0.8741  -0.8492   4.4689   4.5048   6.3129   6.6900
     9.0863   9.1545

     occupation numbers 
     1.0000   1.0000   1.0000   1.0000   1.0000   1.0000   1.0000   1.0000
     1.0000   1.0000   1.0000   1.0000   1.0000   1.0000   1.0000   1.0000
     1.0000   1.0000

          k = 0.3000 0.5774 0.2920 ( 14748 PWs)   bands (ev):

    -4.3080  -4.3063  -2.8197  -2.8171  -2.8077  -2.7882  -2.6727  -2.6726
    -2.6412  -2.6405  -0.8677  -0.8552   4.4669   4.4849   6.4037   6.5927
     9.1289   9.1633

     occupation numbers 
     1.0000   1.0000   1.0000   1.0000   1.0000   1.0000   1.0000   1.0000
     1.0000   1.0000   1.0000   1.0000   1.0000   1.0000   1.0000   1.0000
     1.0000   1.0000

          k = 0.3000 0.5774-0.3073 ( 14746 PWs)   bands (ev):

    -4.3069  -4.3069  -2.8185  -2.8185  -2.7982  -2.7982  -2.6727  -2.6727
    -2.6407  -2.6407  -0.8614  -0.8614   4.4723   4.4723   6.4972   6.4972
     9.1547   9.1547

     occupation numbers 
     1.0000   1.0000   1.0000   1.0000   1.0000   1.0000   1.0000   1.0000
     1.0000   1.0000   1.0000   1.0000   1.0000   1.0000   1.0000   1.0000
     1.0000   1.0000

          k = 0.3250 0.5629 0.0000 ( 14746 PWs)   bands (ev):

    -4.3568  -4.3451  -2.9338  -2.7374  -2.7271  -2.7178  -2.7041  -2.7004
    -2.6591  -2.6133  -0.9078  -0.8211   5.2482   5.2795   5.4452   7.5631
     7.7577   7.9251

     occupation numbers 
     1.0000   1.0000   1.0000   1.0000   1.0000   1.0000   1.0000   1.0000
     1.0000   1.0000   1.0000   1.0000   1.0000   1.0000   1.0000   1.0000
     1.0000   1.0000

          k = 0.3250 0.5629 0.0154 ( 14739 PWs)   bands (ev):

    -4.3565  -4.3448  -2.9334  -2.7387  -2.7287  -2.7179  -2.7030  -2.6990
    -2.6591  -2.6138  -0.9076  -0.8212   5.2407   5.2763   5.4439   7.5745
     7.7685   7.9194

     occupation numbers 
     1.0000   1.0000   1.0000   1.0000   1.0000   1.0000   1.0000   1.0000
     1.0000   1.0000   1.0000   1.0000   1.0000   1.0000   1.0000   1.0000
     1.0000   1.0000

          k = 0.3250 0.5629 0.0307 ( 14739 PWs)   bands (ev):

    -4.3556  -4.3441  -2.9322  -2.7422  -2.7327  -2.7179  -2.6999  -2.6955
    -2.6592  -2.6150  -0.9070  -0.8213   5.2189   5.2651   5.4419   7.6080
     7.8004   7.9027

     occupation numbers 
     1.0000   1.0000   1.0000   1.0000   1.0000   1.0000   1.0000   1.0000
     1.0000   1.0000   1.0000   1.0000   1.0000   1.0000   1.0000   1.0000
     1.0000   1.0000

          k = 0.3250 0.5629 0.0461 ( 14750 PWs)   bands (ev):

    -4.3542  -4.3429  -2.9302  -2.7470  -2.7381  -2.7181  -2.6958  -2.6911
    -2.6594  -2.6171  -0.9061  -0.8216   5.1843   5.2428   5.4440   7.6616
     7.8518   7.8753

     occupation numbers 
     1.0000   1.0000   1.0000   1.0000   1.0000   1.0000   1.0000   1.0000
     1.0000   1.0000   1.0000   1.0000   1.0000   1.0000   1.0000   1.0000
     1.0000   1.0000

          k = 0.3250 0.5629 0.0615 ( 14755 PWs)   bands (ev):

    -4.3523  -4.3412  -2.9274  -2.7525  -2.7441  -2.7183  -2.6911  -2.6864
    -2.6596  -2.6200  -0.9048  -0.8220   5.1391   5.2075   5.4541   7.7324
     7.8384   7.9201

     occupation numbers 
     1.0000   1.0000   1.0000   1.0000   1.0000   1.0000   1.0000   1.0000
     1.0000   1.0000   1.0000   1.0000   1.0000   1.0000   1.0000   1.0000
     1.0000   1.0000

          k = 0.3250 0.5629 0.0768 ( 14763 PWs)   bands (ev):

    -4.3499  -4.3391  -2.9238  -2.7584  -2.7504  -2.7188  -2.6863  -2.6818
    -2.6598  -2.6236  -0.9032  -0.8226   5.0860   5.1606   5.4731   7.7818
     7.8278   8.0025

     occupation numbers 
     1.0000   1.0000   1.0000   1.0000   1.0000   1.0000   1.0000   1.0000
     1.0000   1.0000   1.0000   1.0000   1.0000   1.0000   1.0000   1.0000
     1.0000   1.0000

          k = 0.3250 0.5629 0.0922 ( 14767 PWs)   bands (ev):

    -4.3471  -4.3367  -2.9195  -2.7644  -2.7568  -2.7194  -2.6815  -2.6773
    -2.6599  -2.6278  -0.9012  -0.8233   5.0275   5.1052   5.5004   7.7297
     7.9217   8.0961

     occupation numbers 
     1.0000   1.0000   1.0000   1.0000   1.0000   1.0000   1.0000   1.0000
     1.0000   1.0000   1.0000   1.0000   1.0000   1.0000   1.0000   1.0000
     1.0000   1.0000

          k = 0.3250 0.5629 0.1076 ( 14763 PWs)   bands (ev):

    -4.3439  -4.3340  -2.9144  -2.7705  -2.7633  -2.7203  -2.6769  -2.6734
    -2.6599  -2.6325  -0.8989  -0.8241   4.9659   5.0443   5.5352   7.6650
     8.0289   8.1979

     occupation numbers 
     1.0000   1.0000   1.0000   1.0000   1.0000   1.0000   1.0000   1.0000
     1.0000   1.0000   1.0000   1.0000   1.0000   1.0000   1.0000   1.0000
     1.0000   1.0000

          k = 0.3250 0.5629 0.1229 ( 14745 PWs)   bands (ev):

    -4.3404  -4.3310  -2.9086  -2.7764  -2.7697  -2.7216  -2.6724  -2.6702
    -2.6595  -2.6376  -0.8963  -0.8251   4.9033   4.9806   5.5766   7.5926
     8.1427   8.3050

     occupation numbers 
     1.0000   1.0000   1.0000   1.0000   1.0000   1.0000   1.0000   1.0000
     1.0000   1.0000   1.0000   1.0000   1.0000   1.0000   1.0000   1.0000
     1.0000   1.0000

          k = 0.3250 0.5629 0.1383 ( 14731 PWs)   bands (ev):

    -4.3367  -4.3279  -2.9021  -2.7822  -2.7759  -2.7233  -2.6683  -2.6681
    -2.6583  -2.6428  -0.8935  -0.8263   4.8414   4.9162   5.6242   7.5136
     8.2602   8.4149

     occupation numbers 
     1.0000   1.0000   1.0000   1.0000   1.0000   1.0000   1.0000   1.0000
     1.0000   1.0000   1.0000   1.0000   1.0000   1.0000   1.0000   1.0000
     1.0000   1.0000

          k = 0.3250 0.5629 0.1537 ( 14728 PWs)   bands (ev):

    -4.3329  -4.3247  -2.8950  -2.7878  -2.7819  -2.7257  -2.6672  -2.6644
    -2.6563  -2.6479  -0.8904  -0.8277   4.7817   4.8528   5.6776   7.4291
     8.3788   8.5249

     occupation numbers 
     1.0000   1.0000   1.0000   1.0000   1.0000   1.0000   1.0000   1.0000
     1.0000   1.0000   1.0000   1.0000   1.0000   1.0000   1.0000   1.0000
     1.0000   1.0000

          k = 0.3250 0.5629 0.1690 ( 14743 PWs)   bands (ev):

    -4.3291  -4.3216  -2.8873  -2.7930  -2.7876  -2.7289  -2.6671  -2.6612
    -2.6539  -2.6525  -0.8871  -0.8293   4.7254   4.7918   5.7364   7.3400
     8.4963   8.6327

     occupation numbers 
     1.0000   1.0000   1.0000   1.0000   1.0000   1.0000   1.0000   1.0000
     1.0000   1.0000   1.0000   1.0000   1.0000   1.0000   1.0000   1.0000
     1.0000   1.0000

          k = 0.3250 0.5629 0.1844 ( 14746 PWs)   bands (ev):

    -4.3253  -4.3185  -2.8790  -2.7978  -2.7930  -2.7331  -2.6674  -2.6603
    -2.6547  -2.6514  -0.8836  -0.8311   4.6733   4.7344   5.8004   7.2472
     8.6103   8.7359

     occupation numbers 
     1.0000   1.0000   1.0000   1.0000   1.0000   1.0000   1.0000   1.0000
     1.0000   1.0000   1.0000   1.0000   1.0000   1.0000   1.0000   1.0000
     1.0000   1.0000

          k = 0.3250 0.5629 0.1998 ( 14745 PWs)   bands (ev):

    -4.3216  -4.3156  -2.8702  -2.8022  -2.7979  -2.7383  -2.6679  -2.6628
    -2.6530  -2.6491  -0.8799  -0.8332   4.6264   4.6813   5.8692   7.1515
     8.7187   8.8323

     occupation numbers 
     1.0000   1.0000   1.0000   1.0000   1.0000   1.0000   1.0000   1.0000
     1.0000   1.0000   1.0000   1.0000   1.0000   1.0000   1.0000   1.0000
     1.0000   1.0000

          k = 0.3250 0.5629 0.2151 ( 14753 PWs)   bands (ev):

    -4.3182  -4.3129  -2.8610  -2.8061  -2.8023  -2.7446  -2.6686  -2.6657
    -2.6507  -2.6471  -0.8762  -0.8354   4.5852   4.6334   5.9426   7.0537
     8.8194   8.9198

     occupation numbers 
     1.0000   1.0000   1.0000   1.0000   1.0000   1.0000   1.0000   1.0000
     1.0000   1.0000   1.0000   1.0000   1.0000   1.0000   1.0000   1.0000
     1.0000   1.0000

          k = 0.3250 0.5629 0.2305 ( 14756 PWs)   bands (ev):

    -4.3150  -4.3106  -2.8514  -2.8095  -2.8062  -2.7520  -2.6692  -2.6681
    -2.6485  -2.6454  -0.8724  -0.8379   4.5503   4.5912   6.0202   6.9546
     8.9103   8.9963

     occupation numbers 
     1.0000   1.0000   1.0000   1.0000   1.0000   1.0000   1.0000   1.0000
     1.0000   1.0000   1.0000   1.0000   1.0000   1.0000   1.0000   1.0000
     1.0000   1.0000

          k = 0.3250 0.5629 0.2459 ( 14743 PWs)   bands (ev):

    -4.3123  -4.3087  -2.8414  -2.8122  -2.8095  -2.7603  -2.6699  -2.6698
    -2.6465  -2.6441  -0.8685  -0.8407   4.5220   4.5552   6.1019   6.8549
     8.9896   9.0600

     occupation numbers 
     1.0000   1.0000   1.0000   1.0000   1.0000   1.0000   1.0000   1.0000
     1.0000   1.0000   1.0000   1.0000   1.0000   1.0000   1.0000   1.0000
     1.0000   1.0000

          k = 0.3250 0.5629 0.2612 ( 14751 PWs)   bands (ev):

    -4.3100  -4.3073  -2.8313  -2.8144  -2.8121  -2.7693  -2.6709  -2.6706
    -2.6449  -2.6431  -0.8647  -0.8436   4.5007   4.5259   6.1872   6.7551
     9.0554   9.1092

     occupation numbers 
     1.0000   1.0000   1.0000   1.0000   1.0000   1.0000   1.0000   1.0000
     1.0000   1.0000   1.0000   1.0000   1.0000   1.0000   1.0000   1.0000
     1.0000   1.0000

          k = 0.3250 0.5629 0.2766 ( 14754 PWs)   bands (ev):

    -4.3082  -4.3064  -2.8213  -2.8158  -2.8137  -2.7790  -2.6716  -2.6711
    -2.6437  -2.6425  -0.8609  -0.8467   4.4866   4.5035   6.2759   6.6560
     9.1064   9.1427

     occupation numbers 
     1.0000   1.0000   1.0000   1.0000   1.0000   1.0000   1.0000   1.0000
     1.0000   1.0000   1.0000   1.0000   1.0000   1.0000   1.0000   1.0000
     1.0000   1.0000

          k = 0.3250 0.5629 0.2920 ( 14760 PWs)   bands (ev):

    -4.3069  -4.3060  -2.8166  -2.8165  -2.8093  -2.7890  -2.6718  -2.6715
    -2.6428  -2.6422  -0.8571  -0.8500   4.4798   4.4883   6.3675   6.5580
     9.1411   9.1595

     occupation numbers 
     1.0000   1.0000   1.0000   1.0000   1.0000   1.0000   1.0000   1.0000
     1.0000   1.0000   1.0000   1.0000   1.0000   1.0000   1.0000   1.0000
     1.0000   1.0000

          k = 0.3250 0.5629-0.3073 ( 14746 PWs)   bands (ev):

    -4.3061  -4.3061  -2.8167  -2.8167  -2.7993  -2.7993  -2.6718  -2.6718
    -2.6423  -2.6423  -0.8535  -0.8535   4.4803   4.4803   6.4617   6.4617
     9.1590   9.1590

     occupation numbers 
     1.0000   1.0000   1.0000   1.0000   1.0000   1.0000   1.0000   1.0000
     1.0000   1.0000   1.0000   1.0000   1.0000   1.0000   1.0000   1.0000
     1.0000   1.0000

     highest occupied level (ev):    10.6184

!    total energy              =    -347.51875589 Ry
     estimated scf accuracy    <       0.00000029 Ry

     The total energy is the sum of the following terms:
     one-electron contribution =    -105.66888703 Ry
     hartree contribution      =      87.58438030 Ry
     xc contribution           =     -96.27742227 Ry
     ewald contribution        =    -233.15682690 Ry

     convergence has been achieved in  18 iterations

     Writing output data file ../tmp/GaN_exc1.save/
 
     init_run     :     65.44s CPU     67.38s WALL (       1 calls)
     electrons    :   2606.53s CPU   2645.90s WALL (       1 calls)

     Called by init_run:
     wfcinit      :     63.66s CPU     65.53s WALL (       1 calls)
     wfcinit:atom :      1.68s CPU      1.70s WALL (    3234 calls)
     wfcinit:wfcr :     52.72s CPU     53.30s WALL (    3234 calls)
     potinit      :      0.19s CPU      0.19s WALL (       1 calls)
     hinit0       :      0.57s CPU      0.62s WALL (       1 calls)

     Called by electrons:
     c_bands      :   2246.23s CPU   2275.62s WALL (      18 calls)
     sum_band     :    359.74s CPU    369.62s WALL (      18 calls)
     v_of_rho     :      0.42s CPU      0.46s WALL (      19 calls)
     v_h          :      0.01s CPU      0.02s WALL (      19 calls)
     v_xc         :      0.40s CPU      0.44s WALL (      19 calls)
     mix_rho      :      0.12s CPU      0.15s WALL (      18 calls)

     Called by c_bands:
     init_us_2    :     96.89s CPU    102.52s WALL (  119658 calls)
     cegterg      :   1910.17s CPU   1933.00s WALL (   58212 calls)

     Called by sum_band:
     sum_band:wei :      0.01s CPU      0.01s WALL (      18 calls)
     sum_band:loo :    359.64s CPU    369.53s WALL (      18 calls)
     sum_band:buf :     14.47s CPU     16.46s WALL (   58212 calls)
     sum_band:ini :     47.08s CPU     50.96s WALL (   58212 calls)

     Called by *egterg:
     cdiaghg      :    138.44s CPU    139.61s WALL (  176300 calls)
     cegterg:over :     96.42s CPU     97.08s WALL (  118088 calls)
     cegterg:upda :     53.41s CPU     53.91s WALL (  118088 calls)
     cegterg:last :     83.65s CPU     84.19s WALL (   99249 calls)
     cdiaghg:chol :     15.26s CPU     15.41s WALL (  176300 calls)
     cdiaghg:inve :      3.43s CPU      3.48s WALL (  176300 calls)
     cdiaghg:para :     15.95s CPU     16.00s WALL (  352600 calls)
     h_psi        :   1515.77s CPU   1536.26s WALL (  179534 calls)
     g_psi        :     11.62s CPU     11.74s WALL (  118088 calls)

     Called by h_psi:
     h_psi:calbec :     94.62s CPU     95.84s WALL (  179534 calls)
     vloc_psi     :   1288.03s CPU   1306.44s WALL (  179534 calls)
     add_vuspsi   :    114.26s CPU    115.12s WALL (  179534 calls)

     General routines
     calbec       :     93.99s CPU     95.38s WALL (  179534 calls)
     fft          :      0.12s CPU      0.17s WALL (     190 calls)
     ffts         :      0.01s CPU      0.01s WALL (      18 calls)
     fftw         :   1240.21s CPU   1256.83s WALL ( 6157064 calls)
 
     Parallel routines
 
     PWSCF        :  44m41.05s CPU  45m37.07s WALL

 
   This run was terminated on:  21:42:48  27Mar2023            

=------------------------------------------------------------------------------=
   JOB DONE.
=------------------------------------------------------------------------------=
