
     Program PWSCF v.6.8 starts on 27Mar2023 at 21:42:50 

     This program is part of the open-source Quantum ESPRESSO suite
     for quantum simulation of materials; please cite
         "P. Giannozzi et al., J. Phys.:Condens. Matter 21 395502 (2009);
         "P. Giannozzi et al., J. Phys.:Condens. Matter 29 465901 (2017);
         "P. Giannozzi et al., J. Chem. Phys. 152 154105 (2020);
          URL http://www.quantum-espresso.org", 
     in publications or presentations arising from this work. More details at
     http://www.quantum-espresso.org/quote

     Parallel version (MPI & OpenMP), running on       6 processor cores
     Number of MPI processes:                 6
     Threads/MPI process:                     1

     MPI processes distributed on     1 nodes
     R & G space division:  proc/nbgrp/npool/nimage =       6
     49502 MiB available memory on the printing compute node when the environment starts
 
     Waiting for input...
     Reading input from standard input
Warning: card &CELL ignored
Warning: card / ignored

     Current dimensions of program PWSCF are:
     Max number of different atomic species (ntypx) = 10
     Max number of k-points (npk) =  40000
     Max angular momentum in pseudopotentials (lmaxx) =  4

     Subspace diagonalization in iterative solution of the eigenvalue problem:
     one sub-group per band group will be used
     scalapack distributed-memory algorithm (size of sub-group:  2*  2 procs)

 
     Parallelization info
     --------------------
     sticks:   dense  smooth     PW     G-vecs:    dense   smooth      PW
     Min         332     332     93                19646    19646    2883
     Max         333     333     94                19651    19651    2888
     Sum        1993    1993    559               117881   117881   17309
 
     Using Slab Decomposition
 


     bravais-lattice index     =            4
     lattice parameter (alat)  =       6.0282  a.u.
     unit-cell volume          =     308.6570 (a.u.)^3
     number of atoms/cell      =            4
     number of atomic types    =            2
     number of electrons       =        36.00
     number of Kohn-Sham states=           18
     kinetic-energy cutoff     =     200.0000  Ry
     charge density cutoff     =     800.0000  Ry
     scf convergence threshold =      1.0E-06
     mixing beta               =       0.7000
     number of iterations used =            8  plain     mixing
     Exchange-correlation= PBE
                           (   1   4   3   4   0   0   0)

     celldm(1)=   6.028226  celldm(2)=   0.000000  celldm(3)=   1.626960
     celldm(4)=   0.000000  celldm(5)=   0.000000  celldm(6)=   0.000000

     crystal axes: (cart. coord. in units of alat)
               a(1) = (   1.000000   0.000000   0.000000 )  
               a(2) = (  -0.500000   0.866025   0.000000 )  
               a(3) = (   0.000000   0.000000   1.626960 )  

     reciprocal axes: (cart. coord. in units 2 pi/alat)
               b(1) = (  1.000000  0.577350  0.000000 )  
               b(2) = (  0.000000  1.154701  0.000000 )  
               b(3) = (  0.000000  0.000000  0.614643 )  


     PseudoPot. # 1 for Ga read from file:
     ../pseudo/Ga_ONCV_PBE_sr.upf
     MD5 check sum: e3654b1fbeb096be7359f640ef9d98d7
     Pseudo is Norm-conserving + core correction, Zval = 13.0
     Generated using ONCVPSP code by D. R. Hamann
     Using radial grid of 1902 points,  6 beta functions with: 
                l(1) =   0
                l(2) =   0
                l(3) =   1
                l(4) =   1
                l(5) =   2
                l(6) =   2

     PseudoPot. # 2 for N  read from file:
     ../pseudo/N_ONCV_PBE_sr.upf
     MD5 check sum: 18c6af81dac9c5a2d6d52ed11cf7bfee
     Pseudo is Norm-conserving + core correction, Zval =  5.0
     Generated using ONCVPSP code by D. R. Hamann
     Using radial grid of 1058 points,  4 beta functions with: 
                l(1) =   0
                l(2) =   0
                l(3) =   1
                l(4) =   1

     atomic species   valence    mass     pseudopotential
        Ga            13.00    69.72300     Ga( 1.00)
        N              5.00    14.00700     N ( 1.00)

     12 Sym. Ops. (no inversion) found ( 6 have fractional translation)


                                    s                        frac. trans.

      isym =  1     identity                                     

 cryst.   s( 1) = (     1          0          0      )
                  (     0          1          0      )
                  (     0          0          1      )

 cart.    s( 1) = (  1.0000000  0.0000000  0.0000000 )
                  (  0.0000000  1.0000000  0.0000000 )
                  (  0.0000000  0.0000000  1.0000000 )


      isym =  2     180 deg rotation - cart. axis [0,0,1]        

 cryst.   s( 2) = (    -1          0          0      )    f =(  0.0000000 )
                  (     0         -1          0      )       (  0.0000000 )
                  (     0          0          1      )       ( -0.5000000 )

 cart.    s( 2) = ( -1.0000000  0.0000000  0.0000000 )    f =(  0.0000000 )
                  (  0.0000000 -1.0000000  0.0000000 )       (  0.0000000 )
                  (  0.0000000  0.0000000  1.0000000 )       ( -0.8134800 )


      isym =  3      60 deg rotation - cryst. axis [0,0,1]       

 cryst.   s( 3) = (     1          1          0      )    f =(  0.0000000 )
                  (    -1          0          0      )       (  0.0000000 )
                  (     0          0          1      )       ( -0.5000000 )

 cart.    s( 3) = (  0.5000000 -0.8660254  0.0000000 )    f =(  0.0000000 )
                  (  0.8660254  0.5000000  0.0000000 )       (  0.0000000 )
                  (  0.0000000  0.0000000  1.0000000 )       ( -0.8134800 )


      isym =  4      60 deg rotation - cryst. axis [0,0,-1]      

 cryst.   s( 4) = (     0         -1          0      )    f =(  0.0000000 )
                  (     1          1          0      )       (  0.0000000 )
                  (     0          0          1      )       ( -0.5000000 )

 cart.    s( 4) = (  0.5000000  0.8660254  0.0000000 )    f =(  0.0000000 )
                  ( -0.8660254  0.5000000  0.0000000 )       (  0.0000000 )
                  (  0.0000000  0.0000000  1.0000000 )       ( -0.8134800 )


      isym =  5     120 deg rotation - cryst. axis [0,0,1]       

 cryst.   s( 5) = (     0          1          0      )
                  (    -1         -1          0      )
                  (     0          0          1      )

 cart.    s( 5) = ( -0.5000000 -0.8660254  0.0000000 )
                  (  0.8660254 -0.5000000  0.0000000 )
                  (  0.0000000  0.0000000  1.0000000 )


      isym =  6     120 deg rotation - cryst. axis [0,0,-1]      

 cryst.   s( 6) = (    -1         -1          0      )
                  (     1          0          0      )
                  (     0          0          1      )

 cart.    s( 6) = ( -0.5000000  0.8660254  0.0000000 )
                  ( -0.8660254 -0.5000000  0.0000000 )
                  (  0.0000000  0.0000000  1.0000000 )


      isym =  7     inv. 180 deg rotation - cart. axis [0,1,0]   

 cryst.   s( 7) = (     1          0          0      )    f =(  0.0000000 )
                  (    -1         -1          0      )       (  0.0000000 )
                  (     0          0          1      )       ( -0.5000000 )

 cart.    s( 7) = (  1.0000000  0.0000000  0.0000000 )    f =(  0.0000000 )
                  (  0.0000000 -1.0000000  0.0000000 )       (  0.0000000 )
                  (  0.0000000  0.0000000  1.0000000 )       ( -0.8134800 )


      isym =  8     inv. 180 deg rotation - cart. axis [1,0,0]   

 cryst.   s( 8) = (    -1          0          0      )
                  (     1          1          0      )
                  (     0          0          1      )

 cart.    s( 8) = ( -1.0000000  0.0000000  0.0000000 )
                  (  0.0000000  1.0000000  0.0000000 )
                  (  0.0000000  0.0000000  1.0000000 )


      isym =  9     inv. 180 deg rotation - cryst. axis [1,-1,0] 

 cryst.   s( 9) = (     0          1          0      )    f =(  0.0000000 )
                  (     1          0          0      )       (  0.0000000 )
                  (     0          0          1      )       ( -0.5000000 )

 cart.    s( 9) = ( -0.5000000  0.8660254  0.0000000 )    f =(  0.0000000 )
                  (  0.8660254  0.5000000  0.0000000 )       (  0.0000000 )
                  (  0.0000000  0.0000000  1.0000000 )       ( -0.8134800 )


      isym = 10     inv. 180 deg rotation - cryst. axis [2,1,0]  

 cryst.   s(10) = (    -1         -1          0      )    f =(  0.0000000 )
                  (     0          1          0      )       (  0.0000000 )
                  (     0          0          1      )       ( -0.5000000 )

 cart.    s(10) = ( -0.5000000 -0.8660254  0.0000000 )    f =(  0.0000000 )
                  ( -0.8660254  0.5000000  0.0000000 )       (  0.0000000 )
                  (  0.0000000  0.0000000  1.0000000 )       ( -0.8134800 )


      isym = 11     inv. 180 deg rotation - cryst. axis [0,1,0]  

 cryst.   s(11) = (     1          1          0      )
                  (     0         -1          0      )
                  (     0          0          1      )

 cart.    s(11) = (  0.5000000  0.8660254  0.0000000 )
                  (  0.8660254 -0.5000000  0.0000000 )
                  (  0.0000000  0.0000000  1.0000000 )


      isym = 12     inv. 180 deg rotation - cryst. axis [1,1,0]  

 cryst.   s(12) = (     0         -1          0      )
                  (    -1          0          0      )
                  (     0          0          1      )

 cart.    s(12) = (  0.5000000 -0.8660254  0.0000000 )
                  ( -0.8660254 -0.5000000  0.0000000 )
                  (  0.0000000  0.0000000  1.0000000 )


     point group C_6v (6mm) 
     there are  6 classes
     the character table:

       E     2C6   2C3   C2    3s_v  3s_d 
A_1    1.00  1.00  1.00  1.00  1.00  1.00
A_2    1.00  1.00  1.00  1.00 -1.00 -1.00
B_1    1.00 -1.00  1.00 -1.00  1.00 -1.00
B_2    1.00 -1.00  1.00 -1.00 -1.00  1.00
E_1    2.00  1.00 -1.00 -2.00  0.00  0.00
E_2    2.00 -1.00 -1.00  2.00  0.00  0.00

     the symmetry operations in each class and the name of the first element:

     E        1
          identity                                               
     2C6      3    4
           60 deg rotation - cryst. axis [0,0,1]                 
     2C3      5    6
          120 deg rotation - cryst. axis [0,0,1]                 
     C2       2
          180 deg rotation - cart. axis [0,0,1]                  
     3s_v     8   12   11
          inv. 180 deg rotation - cart. axis [1,0,0]             
     3s_d     7    9   10
          inv. 180 deg rotation - cart. axis [0,1,0]             

   Cartesian axes

     site n.     atom                  positions (alat units)
         1           Ga  tau(   1) = (   0.5000000   0.2886751   0.8119892  )
         2           Ga  tau(   2) = (   0.0000000   0.5773503   1.6254692  )
         3           N   tau(   3) = (   0.5000000   0.2886751   1.4250808  )
         4           N   tau(   4) = (   0.0000000   0.5773503   0.6116008  )

   Crystallographic axes

     site n.     atom                  positions (cryst. coord.)
         1           Ga  tau(   1) = (  0.6666667  0.3333333  0.4990837  )
         2           Ga  tau(   2) = (  0.3333333  0.6666667  0.9990837  )
         3           N   tau(   3) = (  0.6666667  0.3333333  0.8759163  )
         4           N   tau(   4) = (  0.3333333  0.6666667  0.3759163  )

     number of k points=  6084
                       cart. coord. in units 2pi/alat
        k(    1) = (   0.0000000   0.0000000   0.0000000), wk =   0.0000160
        k(    2) = (   0.0000000   0.0000000   0.0122929), wk =   0.0000320
        k(    3) = (   0.0000000   0.0000000   0.0245857), wk =   0.0000320
        k(    4) = (   0.0000000   0.0000000   0.0368786), wk =   0.0000320
        k(    5) = (   0.0000000   0.0000000   0.0491715), wk =   0.0000320
        k(    6) = (   0.0000000   0.0000000   0.0614643), wk =   0.0000320
        k(    7) = (   0.0000000   0.0000000   0.0737572), wk =   0.0000320
        k(    8) = (   0.0000000   0.0000000   0.0860501), wk =   0.0000320
        k(    9) = (   0.0000000   0.0000000   0.0983429), wk =   0.0000320
        k(   10) = (   0.0000000   0.0000000   0.1106358), wk =   0.0000320
        k(   11) = (   0.0000000   0.0000000   0.1229287), wk =   0.0000320
        k(   12) = (   0.0000000   0.0000000   0.1352215), wk =   0.0000320
        k(   13) = (   0.0000000   0.0000000   0.1475144), wk =   0.0000320
        k(   14) = (   0.0000000   0.0000000   0.1598072), wk =   0.0000320
        k(   15) = (   0.0000000   0.0000000   0.1721001), wk =   0.0000320
        k(   16) = (   0.0000000   0.0000000   0.1843930), wk =   0.0000320
        k(   17) = (   0.0000000   0.0000000   0.1966858), wk =   0.0000320
        k(   18) = (   0.0000000   0.0000000   0.2089787), wk =   0.0000320
        k(   19) = (   0.0000000   0.0000000   0.2212716), wk =   0.0000320
        k(   20) = (   0.0000000   0.0000000   0.2335644), wk =   0.0000320
        k(   21) = (   0.0000000   0.0000000   0.2458573), wk =   0.0000320
        k(   22) = (   0.0000000   0.0000000   0.2581502), wk =   0.0000320
        k(   23) = (   0.0000000   0.0000000   0.2704430), wk =   0.0000320
        k(   24) = (   0.0000000   0.0000000   0.2827359), wk =   0.0000320
        k(   25) = (   0.0000000   0.0000000   0.2950288), wk =   0.0000320
        k(   26) = (   0.0000000   0.0000000  -0.3073216), wk =   0.0000160
        k(   27) = (   0.0000000   0.0230940   0.0000000), wk =   0.0000960
        k(   28) = (   0.0000000   0.0230940   0.0122929), wk =   0.0001920
        k(   29) = (   0.0000000   0.0230940   0.0245857), wk =   0.0001920
        k(   30) = (   0.0000000   0.0230940   0.0368786), wk =   0.0001920
        k(   31) = (   0.0000000   0.0230940   0.0491715), wk =   0.0001920
        k(   32) = (   0.0000000   0.0230940   0.0614643), wk =   0.0001920
        k(   33) = (   0.0000000   0.0230940   0.0737572), wk =   0.0001920
        k(   34) = (   0.0000000   0.0230940   0.0860501), wk =   0.0001920
        k(   35) = (   0.0000000   0.0230940   0.0983429), wk =   0.0001920
        k(   36) = (   0.0000000   0.0230940   0.1106358), wk =   0.0001920
        k(   37) = (   0.0000000   0.0230940   0.1229287), wk =   0.0001920
        k(   38) = (   0.0000000   0.0230940   0.1352215), wk =   0.0001920
        k(   39) = (   0.0000000   0.0230940   0.1475144), wk =   0.0001920
        k(   40) = (   0.0000000   0.0230940   0.1598072), wk =   0.0001920
        k(   41) = (   0.0000000   0.0230940   0.1721001), wk =   0.0001920
        k(   42) = (   0.0000000   0.0230940   0.1843930), wk =   0.0001920
        k(   43) = (   0.0000000   0.0230940   0.1966858), wk =   0.0001920
        k(   44) = (   0.0000000   0.0230940   0.2089787), wk =   0.0001920
        k(   45) = (   0.0000000   0.0230940   0.2212716), wk =   0.0001920
        k(   46) = (   0.0000000   0.0230940   0.2335644), wk =   0.0001920
        k(   47) = (   0.0000000   0.0230940   0.2458573), wk =   0.0001920
        k(   48) = (   0.0000000   0.0230940   0.2581502), wk =   0.0001920
        k(   49) = (   0.0000000   0.0230940   0.2704430), wk =   0.0001920
        k(   50) = (   0.0000000   0.0230940   0.2827359), wk =   0.0001920
        k(   51) = (   0.0000000   0.0230940   0.2950288), wk =   0.0001920
        k(   52) = (   0.0000000   0.0230940  -0.3073216), wk =   0.0000960
        k(   53) = (   0.0000000   0.0461880   0.0000000), wk =   0.0000960
        k(   54) = (   0.0000000   0.0461880   0.0122929), wk =   0.0001920
        k(   55) = (   0.0000000   0.0461880   0.0245857), wk =   0.0001920
        k(   56) = (   0.0000000   0.0461880   0.0368786), wk =   0.0001920
        k(   57) = (   0.0000000   0.0461880   0.0491715), wk =   0.0001920
        k(   58) = (   0.0000000   0.0461880   0.0614643), wk =   0.0001920
        k(   59) = (   0.0000000   0.0461880   0.0737572), wk =   0.0001920
        k(   60) = (   0.0000000   0.0461880   0.0860501), wk =   0.0001920
        k(   61) = (   0.0000000   0.0461880   0.0983429), wk =   0.0001920
        k(   62) = (   0.0000000   0.0461880   0.1106358), wk =   0.0001920
        k(   63) = (   0.0000000   0.0461880   0.1229287), wk =   0.0001920
        k(   64) = (   0.0000000   0.0461880   0.1352215), wk =   0.0001920
        k(   65) = (   0.0000000   0.0461880   0.1475144), wk =   0.0001920
        k(   66) = (   0.0000000   0.0461880   0.1598072), wk =   0.0001920
        k(   67) = (   0.0000000   0.0461880   0.1721001), wk =   0.0001920
        k(   68) = (   0.0000000   0.0461880   0.1843930), wk =   0.0001920
        k(   69) = (   0.0000000   0.0461880   0.1966858), wk =   0.0001920
        k(   70) = (   0.0000000   0.0461880   0.2089787), wk =   0.0001920
        k(   71) = (   0.0000000   0.0461880   0.2212716), wk =   0.0001920
        k(   72) = (   0.0000000   0.0461880   0.2335644), wk =   0.0001920
        k(   73) = (   0.0000000   0.0461880   0.2458573), wk =   0.0001920
        k(   74) = (   0.0000000   0.0461880   0.2581502), wk =   0.0001920
        k(   75) = (   0.0000000   0.0461880   0.2704430), wk =   0.0001920
        k(   76) = (   0.0000000   0.0461880   0.2827359), wk =   0.0001920
        k(   77) = (   0.0000000   0.0461880   0.2950288), wk =   0.0001920
        k(   78) = (   0.0000000   0.0461880  -0.3073216), wk =   0.0000960
        k(   79) = (   0.0000000   0.0692820   0.0000000), wk =   0.0000960
        k(   80) = (   0.0000000   0.0692820   0.0122929), wk =   0.0001920
        k(   81) = (   0.0000000   0.0692820   0.0245857), wk =   0.0001920
        k(   82) = (   0.0000000   0.0692820   0.0368786), wk =   0.0001920
        k(   83) = (   0.0000000   0.0692820   0.0491715), wk =   0.0001920
        k(   84) = (   0.0000000   0.0692820   0.0614643), wk =   0.0001920
        k(   85) = (   0.0000000   0.0692820   0.0737572), wk =   0.0001920
        k(   86) = (   0.0000000   0.0692820   0.0860501), wk =   0.0001920
        k(   87) = (   0.0000000   0.0692820   0.0983429), wk =   0.0001920
        k(   88) = (   0.0000000   0.0692820   0.1106358), wk =   0.0001920
        k(   89) = (   0.0000000   0.0692820   0.1229287), wk =   0.0001920
        k(   90) = (   0.0000000   0.0692820   0.1352215), wk =   0.0001920
        k(   91) = (   0.0000000   0.0692820   0.1475144), wk =   0.0001920
        k(   92) = (   0.0000000   0.0692820   0.1598072), wk =   0.0001920
        k(   93) = (   0.0000000   0.0692820   0.1721001), wk =   0.0001920
        k(   94) = (   0.0000000   0.0692820   0.1843930), wk =   0.0001920
        k(   95) = (   0.0000000   0.0692820   0.1966858), wk =   0.0001920
        k(   96) = (   0.0000000   0.0692820   0.2089787), wk =   0.0001920
        k(   97) = (   0.0000000   0.0692820   0.2212716), wk =   0.0001920
        k(   98) = (   0.0000000   0.0692820   0.2335644), wk =   0.0001920
        k(   99) = (   0.0000000   0.0692820   0.2458573), wk =   0.0001920
        k(  100) = (   0.0000000   0.0692820   0.2581502), wk =   0.0001920
        k(  101) = (   0.0000000   0.0692820   0.2704430), wk =   0.0001920
        k(  102) = (   0.0000000   0.0692820   0.2827359), wk =   0.0001920
        k(  103) = (   0.0000000   0.0692820   0.2950288), wk =   0.0001920
        k(  104) = (   0.0000000   0.0692820  -0.3073216), wk =   0.0000960
        k(  105) = (   0.0000000   0.0923760   0.0000000), wk =   0.0000960
        k(  106) = (   0.0000000   0.0923760   0.0122929), wk =   0.0001920
        k(  107) = (   0.0000000   0.0923760   0.0245857), wk =   0.0001920
        k(  108) = (   0.0000000   0.0923760   0.0368786), wk =   0.0001920
        k(  109) = (   0.0000000   0.0923760   0.0491715), wk =   0.0001920
        k(  110) = (   0.0000000   0.0923760   0.0614643), wk =   0.0001920
        k(  111) = (   0.0000000   0.0923760   0.0737572), wk =   0.0001920
        k(  112) = (   0.0000000   0.0923760   0.0860501), wk =   0.0001920
        k(  113) = (   0.0000000   0.0923760   0.0983429), wk =   0.0001920
        k(  114) = (   0.0000000   0.0923760   0.1106358), wk =   0.0001920
        k(  115) = (   0.0000000   0.0923760   0.1229287), wk =   0.0001920
        k(  116) = (   0.0000000   0.0923760   0.1352215), wk =   0.0001920
        k(  117) = (   0.0000000   0.0923760   0.1475144), wk =   0.0001920
        k(  118) = (   0.0000000   0.0923760   0.1598072), wk =   0.0001920
        k(  119) = (   0.0000000   0.0923760   0.1721001), wk =   0.0001920
        k(  120) = (   0.0000000   0.0923760   0.1843930), wk =   0.0001920
        k(  121) = (   0.0000000   0.0923760   0.1966858), wk =   0.0001920
        k(  122) = (   0.0000000   0.0923760   0.2089787), wk =   0.0001920
        k(  123) = (   0.0000000   0.0923760   0.2212716), wk =   0.0001920
        k(  124) = (   0.0000000   0.0923760   0.2335644), wk =   0.0001920
        k(  125) = (   0.0000000   0.0923760   0.2458573), wk =   0.0001920
        k(  126) = (   0.0000000   0.0923760   0.2581502), wk =   0.0001920
        k(  127) = (   0.0000000   0.0923760   0.2704430), wk =   0.0001920
        k(  128) = (   0.0000000   0.0923760   0.2827359), wk =   0.0001920
        k(  129) = (   0.0000000   0.0923760   0.2950288), wk =   0.0001920
        k(  130) = (   0.0000000   0.0923760  -0.3073216), wk =   0.0000960
        k(  131) = (   0.0000000   0.1154701   0.0000000), wk =   0.0000960
        k(  132) = (   0.0000000   0.1154701   0.0122929), wk =   0.0001920
        k(  133) = (   0.0000000   0.1154701   0.0245857), wk =   0.0001920
        k(  134) = (   0.0000000   0.1154701   0.0368786), wk =   0.0001920
        k(  135) = (   0.0000000   0.1154701   0.0491715), wk =   0.0001920
        k(  136) = (   0.0000000   0.1154701   0.0614643), wk =   0.0001920
        k(  137) = (   0.0000000   0.1154701   0.0737572), wk =   0.0001920
        k(  138) = (   0.0000000   0.1154701   0.0860501), wk =   0.0001920
        k(  139) = (   0.0000000   0.1154701   0.0983429), wk =   0.0001920
        k(  140) = (   0.0000000   0.1154701   0.1106358), wk =   0.0001920
        k(  141) = (   0.0000000   0.1154701   0.1229287), wk =   0.0001920
        k(  142) = (   0.0000000   0.1154701   0.1352215), wk =   0.0001920
        k(  143) = (   0.0000000   0.1154701   0.1475144), wk =   0.0001920
        k(  144) = (   0.0000000   0.1154701   0.1598072), wk =   0.0001920
        k(  145) = (   0.0000000   0.1154701   0.1721001), wk =   0.0001920
        k(  146) = (   0.0000000   0.1154701   0.1843930), wk =   0.0001920
        k(  147) = (   0.0000000   0.1154701   0.1966858), wk =   0.0001920
        k(  148) = (   0.0000000   0.1154701   0.2089787), wk =   0.0001920
        k(  149) = (   0.0000000   0.1154701   0.2212716), wk =   0.0001920
        k(  150) = (   0.0000000   0.1154701   0.2335644), wk =   0.0001920
        k(  151) = (   0.0000000   0.1154701   0.2458573), wk =   0.0001920
        k(  152) = (   0.0000000   0.1154701   0.2581502), wk =   0.0001920
        k(  153) = (   0.0000000   0.1154701   0.2704430), wk =   0.0001920
        k(  154) = (   0.0000000   0.1154701   0.2827359), wk =   0.0001920
        k(  155) = (   0.0000000   0.1154701   0.2950288), wk =   0.0001920
        k(  156) = (   0.0000000   0.1154701  -0.3073216), wk =   0.0000960
        k(  157) = (   0.0000000   0.1385641   0.0000000), wk =   0.0000960
        k(  158) = (   0.0000000   0.1385641   0.0122929), wk =   0.0001920
        k(  159) = (   0.0000000   0.1385641   0.0245857), wk =   0.0001920
        k(  160) = (   0.0000000   0.1385641   0.0368786), wk =   0.0001920
        k(  161) = (   0.0000000   0.1385641   0.0491715), wk =   0.0001920
        k(  162) = (   0.0000000   0.1385641   0.0614643), wk =   0.0001920
        k(  163) = (   0.0000000   0.1385641   0.0737572), wk =   0.0001920
        k(  164) = (   0.0000000   0.1385641   0.0860501), wk =   0.0001920
        k(  165) = (   0.0000000   0.1385641   0.0983429), wk =   0.0001920
        k(  166) = (   0.0000000   0.1385641   0.1106358), wk =   0.0001920
        k(  167) = (   0.0000000   0.1385641   0.1229287), wk =   0.0001920
        k(  168) = (   0.0000000   0.1385641   0.1352215), wk =   0.0001920
        k(  169) = (   0.0000000   0.1385641   0.1475144), wk =   0.0001920
        k(  170) = (   0.0000000   0.1385641   0.1598072), wk =   0.0001920
        k(  171) = (   0.0000000   0.1385641   0.1721001), wk =   0.0001920
        k(  172) = (   0.0000000   0.1385641   0.1843930), wk =   0.0001920
        k(  173) = (   0.0000000   0.1385641   0.1966858), wk =   0.0001920
        k(  174) = (   0.0000000   0.1385641   0.2089787), wk =   0.0001920
        k(  175) = (   0.0000000   0.1385641   0.2212716), wk =   0.0001920
        k(  176) = (   0.0000000   0.1385641   0.2335644), wk =   0.0001920
        k(  177) = (   0.0000000   0.1385641   0.2458573), wk =   0.0001920
        k(  178) = (   0.0000000   0.1385641   0.2581502), wk =   0.0001920
        k(  179) = (   0.0000000   0.1385641   0.2704430), wk =   0.0001920
        k(  180) = (   0.0000000   0.1385641   0.2827359), wk =   0.0001920
        k(  181) = (   0.0000000   0.1385641   0.2950288), wk =   0.0001920
        k(  182) = (   0.0000000   0.1385641  -0.3073216), wk =   0.0000960
        k(  183) = (   0.0000000   0.1616581   0.0000000), wk =   0.0000960
        k(  184) = (   0.0000000   0.1616581   0.0122929), wk =   0.0001920
        k(  185) = (   0.0000000   0.1616581   0.0245857), wk =   0.0001920
        k(  186) = (   0.0000000   0.1616581   0.0368786), wk =   0.0001920
        k(  187) = (   0.0000000   0.1616581   0.0491715), wk =   0.0001920
        k(  188) = (   0.0000000   0.1616581   0.0614643), wk =   0.0001920
        k(  189) = (   0.0000000   0.1616581   0.0737572), wk =   0.0001920
        k(  190) = (   0.0000000   0.1616581   0.0860501), wk =   0.0001920
        k(  191) = (   0.0000000   0.1616581   0.0983429), wk =   0.0001920
        k(  192) = (   0.0000000   0.1616581   0.1106358), wk =   0.0001920
        k(  193) = (   0.0000000   0.1616581   0.1229287), wk =   0.0001920
        k(  194) = (   0.0000000   0.1616581   0.1352215), wk =   0.0001920
        k(  195) = (   0.0000000   0.1616581   0.1475144), wk =   0.0001920
        k(  196) = (   0.0000000   0.1616581   0.1598072), wk =   0.0001920
        k(  197) = (   0.0000000   0.1616581   0.1721001), wk =   0.0001920
        k(  198) = (   0.0000000   0.1616581   0.1843930), wk =   0.0001920
        k(  199) = (   0.0000000   0.1616581   0.1966858), wk =   0.0001920
        k(  200) = (   0.0000000   0.1616581   0.2089787), wk =   0.0001920
        k(  201) = (   0.0000000   0.1616581   0.2212716), wk =   0.0001920
        k(  202) = (   0.0000000   0.1616581   0.2335644), wk =   0.0001920
        k(  203) = (   0.0000000   0.1616581   0.2458573), wk =   0.0001920
        k(  204) = (   0.0000000   0.1616581   0.2581502), wk =   0.0001920
        k(  205) = (   0.0000000   0.1616581   0.2704430), wk =   0.0001920
        k(  206) = (   0.0000000   0.1616581   0.2827359), wk =   0.0001920
        k(  207) = (   0.0000000   0.1616581   0.2950288), wk =   0.0001920
        k(  208) = (   0.0000000   0.1616581  -0.3073216), wk =   0.0000960
        k(  209) = (   0.0000000   0.1847521   0.0000000), wk =   0.0000960
        k(  210) = (   0.0000000   0.1847521   0.0122929), wk =   0.0001920
        k(  211) = (   0.0000000   0.1847521   0.0245857), wk =   0.0001920
        k(  212) = (   0.0000000   0.1847521   0.0368786), wk =   0.0001920
        k(  213) = (   0.0000000   0.1847521   0.0491715), wk =   0.0001920
        k(  214) = (   0.0000000   0.1847521   0.0614643), wk =   0.0001920
        k(  215) = (   0.0000000   0.1847521   0.0737572), wk =   0.0001920
        k(  216) = (   0.0000000   0.1847521   0.0860501), wk =   0.0001920
        k(  217) = (   0.0000000   0.1847521   0.0983429), wk =   0.0001920
        k(  218) = (   0.0000000   0.1847521   0.1106358), wk =   0.0001920
        k(  219) = (   0.0000000   0.1847521   0.1229287), wk =   0.0001920
        k(  220) = (   0.0000000   0.1847521   0.1352215), wk =   0.0001920
        k(  221) = (   0.0000000   0.1847521   0.1475144), wk =   0.0001920
        k(  222) = (   0.0000000   0.1847521   0.1598072), wk =   0.0001920
        k(  223) = (   0.0000000   0.1847521   0.1721001), wk =   0.0001920
        k(  224) = (   0.0000000   0.1847521   0.1843930), wk =   0.0001920
        k(  225) = (   0.0000000   0.1847521   0.1966858), wk =   0.0001920
        k(  226) = (   0.0000000   0.1847521   0.2089787), wk =   0.0001920
        k(  227) = (   0.0000000   0.1847521   0.2212716), wk =   0.0001920
        k(  228) = (   0.0000000   0.1847521   0.2335644), wk =   0.0001920
        k(  229) = (   0.0000000   0.1847521   0.2458573), wk =   0.0001920
        k(  230) = (   0.0000000   0.1847521   0.2581502), wk =   0.0001920
        k(  231) = (   0.0000000   0.1847521   0.2704430), wk =   0.0001920
        k(  232) = (   0.0000000   0.1847521   0.2827359), wk =   0.0001920
        k(  233) = (   0.0000000   0.1847521   0.2950288), wk =   0.0001920
        k(  234) = (   0.0000000   0.1847521  -0.3073216), wk =   0.0000960
        k(  235) = (   0.0000000   0.2078461   0.0000000), wk =   0.0000960
        k(  236) = (   0.0000000   0.2078461   0.0122929), wk =   0.0001920
        k(  237) = (   0.0000000   0.2078461   0.0245857), wk =   0.0001920
        k(  238) = (   0.0000000   0.2078461   0.0368786), wk =   0.0001920
        k(  239) = (   0.0000000   0.2078461   0.0491715), wk =   0.0001920
        k(  240) = (   0.0000000   0.2078461   0.0614643), wk =   0.0001920
        k(  241) = (   0.0000000   0.2078461   0.0737572), wk =   0.0001920
        k(  242) = (   0.0000000   0.2078461   0.0860501), wk =   0.0001920
        k(  243) = (   0.0000000   0.2078461   0.0983429), wk =   0.0001920
        k(  244) = (   0.0000000   0.2078461   0.1106358), wk =   0.0001920
        k(  245) = (   0.0000000   0.2078461   0.1229287), wk =   0.0001920
        k(  246) = (   0.0000000   0.2078461   0.1352215), wk =   0.0001920
        k(  247) = (   0.0000000   0.2078461   0.1475144), wk =   0.0001920
        k(  248) = (   0.0000000   0.2078461   0.1598072), wk =   0.0001920
        k(  249) = (   0.0000000   0.2078461   0.1721001), wk =   0.0001920
        k(  250) = (   0.0000000   0.2078461   0.1843930), wk =   0.0001920
        k(  251) = (   0.0000000   0.2078461   0.1966858), wk =   0.0001920
        k(  252) = (   0.0000000   0.2078461   0.2089787), wk =   0.0001920
        k(  253) = (   0.0000000   0.2078461   0.2212716), wk =   0.0001920
        k(  254) = (   0.0000000   0.2078461   0.2335644), wk =   0.0001920
        k(  255) = (   0.0000000   0.2078461   0.2458573), wk =   0.0001920
        k(  256) = (   0.0000000   0.2078461   0.2581502), wk =   0.0001920
        k(  257) = (   0.0000000   0.2078461   0.2704430), wk =   0.0001920
        k(  258) = (   0.0000000   0.2078461   0.2827359), wk =   0.0001920
        k(  259) = (   0.0000000   0.2078461   0.2950288), wk =   0.0001920
        k(  260) = (   0.0000000   0.2078461  -0.3073216), wk =   0.0000960
        k(  261) = (   0.0000000   0.2309401   0.0000000), wk =   0.0000960
        k(  262) = (   0.0000000   0.2309401   0.0122929), wk =   0.0001920
        k(  263) = (   0.0000000   0.2309401   0.0245857), wk =   0.0001920
        k(  264) = (   0.0000000   0.2309401   0.0368786), wk =   0.0001920
        k(  265) = (   0.0000000   0.2309401   0.0491715), wk =   0.0001920
        k(  266) = (   0.0000000   0.2309401   0.0614643), wk =   0.0001920
        k(  267) = (   0.0000000   0.2309401   0.0737572), wk =   0.0001920
        k(  268) = (   0.0000000   0.2309401   0.0860501), wk =   0.0001920
        k(  269) = (   0.0000000   0.2309401   0.0983429), wk =   0.0001920
        k(  270) = (   0.0000000   0.2309401   0.1106358), wk =   0.0001920
        k(  271) = (   0.0000000   0.2309401   0.1229287), wk =   0.0001920
        k(  272) = (   0.0000000   0.2309401   0.1352215), wk =   0.0001920
        k(  273) = (   0.0000000   0.2309401   0.1475144), wk =   0.0001920
        k(  274) = (   0.0000000   0.2309401   0.1598072), wk =   0.0001920
        k(  275) = (   0.0000000   0.2309401   0.1721001), wk =   0.0001920
        k(  276) = (   0.0000000   0.2309401   0.1843930), wk =   0.0001920
        k(  277) = (   0.0000000   0.2309401   0.1966858), wk =   0.0001920
        k(  278) = (   0.0000000   0.2309401   0.2089787), wk =   0.0001920
        k(  279) = (   0.0000000   0.2309401   0.2212716), wk =   0.0001920
        k(  280) = (   0.0000000   0.2309401   0.2335644), wk =   0.0001920
        k(  281) = (   0.0000000   0.2309401   0.2458573), wk =   0.0001920
        k(  282) = (   0.0000000   0.2309401   0.2581502), wk =   0.0001920
        k(  283) = (   0.0000000   0.2309401   0.2704430), wk =   0.0001920
        k(  284) = (   0.0000000   0.2309401   0.2827359), wk =   0.0001920
        k(  285) = (   0.0000000   0.2309401   0.2950288), wk =   0.0001920
        k(  286) = (   0.0000000   0.2309401  -0.3073216), wk =   0.0000960
        k(  287) = (   0.0000000   0.2540341   0.0000000), wk =   0.0000960
        k(  288) = (   0.0000000   0.2540341   0.0122929), wk =   0.0001920
        k(  289) = (   0.0000000   0.2540341   0.0245857), wk =   0.0001920
        k(  290) = (   0.0000000   0.2540341   0.0368786), wk =   0.0001920
        k(  291) = (   0.0000000   0.2540341   0.0491715), wk =   0.0001920
        k(  292) = (   0.0000000   0.2540341   0.0614643), wk =   0.0001920
        k(  293) = (   0.0000000   0.2540341   0.0737572), wk =   0.0001920
        k(  294) = (   0.0000000   0.2540341   0.0860501), wk =   0.0001920
        k(  295) = (   0.0000000   0.2540341   0.0983429), wk =   0.0001920
        k(  296) = (   0.0000000   0.2540341   0.1106358), wk =   0.0001920
        k(  297) = (   0.0000000   0.2540341   0.1229287), wk =   0.0001920
        k(  298) = (   0.0000000   0.2540341   0.1352215), wk =   0.0001920
        k(  299) = (   0.0000000   0.2540341   0.1475144), wk =   0.0001920
        k(  300) = (   0.0000000   0.2540341   0.1598072), wk =   0.0001920
        k(  301) = (   0.0000000   0.2540341   0.1721001), wk =   0.0001920
        k(  302) = (   0.0000000   0.2540341   0.1843930), wk =   0.0001920
        k(  303) = (   0.0000000   0.2540341   0.1966858), wk =   0.0001920
        k(  304) = (   0.0000000   0.2540341   0.2089787), wk =   0.0001920
        k(  305) = (   0.0000000   0.2540341   0.2212716), wk =   0.0001920
        k(  306) = (   0.0000000   0.2540341   0.2335644), wk =   0.0001920
        k(  307) = (   0.0000000   0.2540341   0.2458573), wk =   0.0001920
        k(  308) = (   0.0000000   0.2540341   0.2581502), wk =   0.0001920
        k(  309) = (   0.0000000   0.2540341   0.2704430), wk =   0.0001920
        k(  310) = (   0.0000000   0.2540341   0.2827359), wk =   0.0001920
        k(  311) = (   0.0000000   0.2540341   0.2950288), wk =   0.0001920
        k(  312) = (   0.0000000   0.2540341  -0.3073216), wk =   0.0000960
        k(  313) = (   0.0000000   0.2771281   0.0000000), wk =   0.0000960
        k(  314) = (   0.0000000   0.2771281   0.0122929), wk =   0.0001920
        k(  315) = (   0.0000000   0.2771281   0.0245857), wk =   0.0001920
        k(  316) = (   0.0000000   0.2771281   0.0368786), wk =   0.0001920
        k(  317) = (   0.0000000   0.2771281   0.0491715), wk =   0.0001920
        k(  318) = (   0.0000000   0.2771281   0.0614643), wk =   0.0001920
        k(  319) = (   0.0000000   0.2771281   0.0737572), wk =   0.0001920
        k(  320) = (   0.0000000   0.2771281   0.0860501), wk =   0.0001920
        k(  321) = (   0.0000000   0.2771281   0.0983429), wk =   0.0001920
        k(  322) = (   0.0000000   0.2771281   0.1106358), wk =   0.0001920
        k(  323) = (   0.0000000   0.2771281   0.1229287), wk =   0.0001920
        k(  324) = (   0.0000000   0.2771281   0.1352215), wk =   0.0001920
        k(  325) = (   0.0000000   0.2771281   0.1475144), wk =   0.0001920
        k(  326) = (   0.0000000   0.2771281   0.1598072), wk =   0.0001920
        k(  327) = (   0.0000000   0.2771281   0.1721001), wk =   0.0001920
        k(  328) = (   0.0000000   0.2771281   0.1843930), wk =   0.0001920
        k(  329) = (   0.0000000   0.2771281   0.1966858), wk =   0.0001920
        k(  330) = (   0.0000000   0.2771281   0.2089787), wk =   0.0001920
        k(  331) = (   0.0000000   0.2771281   0.2212716), wk =   0.0001920
        k(  332) = (   0.0000000   0.2771281   0.2335644), wk =   0.0001920
        k(  333) = (   0.0000000   0.2771281   0.2458573), wk =   0.0001920
        k(  334) = (   0.0000000   0.2771281   0.2581502), wk =   0.0001920
        k(  335) = (   0.0000000   0.2771281   0.2704430), wk =   0.0001920
        k(  336) = (   0.0000000   0.2771281   0.2827359), wk =   0.0001920
        k(  337) = (   0.0000000   0.2771281   0.2950288), wk =   0.0001920
        k(  338) = (   0.0000000   0.2771281  -0.3073216), wk =   0.0000960
        k(  339) = (   0.0000000   0.3002221   0.0000000), wk =   0.0000960
        k(  340) = (   0.0000000   0.3002221   0.0122929), wk =   0.0001920
        k(  341) = (   0.0000000   0.3002221   0.0245857), wk =   0.0001920
        k(  342) = (   0.0000000   0.3002221   0.0368786), wk =   0.0001920
        k(  343) = (   0.0000000   0.3002221   0.0491715), wk =   0.0001920
        k(  344) = (   0.0000000   0.3002221   0.0614643), wk =   0.0001920
        k(  345) = (   0.0000000   0.3002221   0.0737572), wk =   0.0001920
        k(  346) = (   0.0000000   0.3002221   0.0860501), wk =   0.0001920
        k(  347) = (   0.0000000   0.3002221   0.0983429), wk =   0.0001920
        k(  348) = (   0.0000000   0.3002221   0.1106358), wk =   0.0001920
        k(  349) = (   0.0000000   0.3002221   0.1229287), wk =   0.0001920
        k(  350) = (   0.0000000   0.3002221   0.1352215), wk =   0.0001920
        k(  351) = (   0.0000000   0.3002221   0.1475144), wk =   0.0001920
        k(  352) = (   0.0000000   0.3002221   0.1598072), wk =   0.0001920
        k(  353) = (   0.0000000   0.3002221   0.1721001), wk =   0.0001920
        k(  354) = (   0.0000000   0.3002221   0.1843930), wk =   0.0001920
        k(  355) = (   0.0000000   0.3002221   0.1966858), wk =   0.0001920
        k(  356) = (   0.0000000   0.3002221   0.2089787), wk =   0.0001920
        k(  357) = (   0.0000000   0.3002221   0.2212716), wk =   0.0001920
        k(  358) = (   0.0000000   0.3002221   0.2335644), wk =   0.0001920
        k(  359) = (   0.0000000   0.3002221   0.2458573), wk =   0.0001920
        k(  360) = (   0.0000000   0.3002221   0.2581502), wk =   0.0001920
        k(  361) = (   0.0000000   0.3002221   0.2704430), wk =   0.0001920
        k(  362) = (   0.0000000   0.3002221   0.2827359), wk =   0.0001920
        k(  363) = (   0.0000000   0.3002221   0.2950288), wk =   0.0001920
        k(  364) = (   0.0000000   0.3002221  -0.3073216), wk =   0.0000960
        k(  365) = (   0.0000000   0.3233162   0.0000000), wk =   0.0000960
        k(  366) = (   0.0000000   0.3233162   0.0122929), wk =   0.0001920
        k(  367) = (   0.0000000   0.3233162   0.0245857), wk =   0.0001920
        k(  368) = (   0.0000000   0.3233162   0.0368786), wk =   0.0001920
        k(  369) = (   0.0000000   0.3233162   0.0491715), wk =   0.0001920
        k(  370) = (   0.0000000   0.3233162   0.0614643), wk =   0.0001920
        k(  371) = (   0.0000000   0.3233162   0.0737572), wk =   0.0001920
        k(  372) = (   0.0000000   0.3233162   0.0860501), wk =   0.0001920
        k(  373) = (   0.0000000   0.3233162   0.0983429), wk =   0.0001920
        k(  374) = (   0.0000000   0.3233162   0.1106358), wk =   0.0001920
        k(  375) = (   0.0000000   0.3233162   0.1229287), wk =   0.0001920
        k(  376) = (   0.0000000   0.3233162   0.1352215), wk =   0.0001920
        k(  377) = (   0.0000000   0.3233162   0.1475144), wk =   0.0001920
        k(  378) = (   0.0000000   0.3233162   0.1598072), wk =   0.0001920
        k(  379) = (   0.0000000   0.3233162   0.1721001), wk =   0.0001920
        k(  380) = (   0.0000000   0.3233162   0.1843930), wk =   0.0001920
        k(  381) = (   0.0000000   0.3233162   0.1966858), wk =   0.0001920
        k(  382) = (   0.0000000   0.3233162   0.2089787), wk =   0.0001920
        k(  383) = (   0.0000000   0.3233162   0.2212716), wk =   0.0001920
        k(  384) = (   0.0000000   0.3233162   0.2335644), wk =   0.0001920
        k(  385) = (   0.0000000   0.3233162   0.2458573), wk =   0.0001920
        k(  386) = (   0.0000000   0.3233162   0.2581502), wk =   0.0001920
        k(  387) = (   0.0000000   0.3233162   0.2704430), wk =   0.0001920
        k(  388) = (   0.0000000   0.3233162   0.2827359), wk =   0.0001920
        k(  389) = (   0.0000000   0.3233162   0.2950288), wk =   0.0001920
        k(  390) = (   0.0000000   0.3233162  -0.3073216), wk =   0.0000960
        k(  391) = (   0.0000000   0.3464102   0.0000000), wk =   0.0000960
        k(  392) = (   0.0000000   0.3464102   0.0122929), wk =   0.0001920
        k(  393) = (   0.0000000   0.3464102   0.0245857), wk =   0.0001920
        k(  394) = (   0.0000000   0.3464102   0.0368786), wk =   0.0001920
        k(  395) = (   0.0000000   0.3464102   0.0491715), wk =   0.0001920
        k(  396) = (   0.0000000   0.3464102   0.0614643), wk =   0.0001920
        k(  397) = (   0.0000000   0.3464102   0.0737572), wk =   0.0001920
        k(  398) = (   0.0000000   0.3464102   0.0860501), wk =   0.0001920
        k(  399) = (   0.0000000   0.3464102   0.0983429), wk =   0.0001920
        k(  400) = (   0.0000000   0.3464102   0.1106358), wk =   0.0001920
        k(  401) = (   0.0000000   0.3464102   0.1229287), wk =   0.0001920
        k(  402) = (   0.0000000   0.3464102   0.1352215), wk =   0.0001920
        k(  403) = (   0.0000000   0.3464102   0.1475144), wk =   0.0001920
        k(  404) = (   0.0000000   0.3464102   0.1598072), wk =   0.0001920
        k(  405) = (   0.0000000   0.3464102   0.1721001), wk =   0.0001920
        k(  406) = (   0.0000000   0.3464102   0.1843930), wk =   0.0001920
        k(  407) = (   0.0000000   0.3464102   0.1966858), wk =   0.0001920
        k(  408) = (   0.0000000   0.3464102   0.2089787), wk =   0.0001920
        k(  409) = (   0.0000000   0.3464102   0.2212716), wk =   0.0001920
        k(  410) = (   0.0000000   0.3464102   0.2335644), wk =   0.0001920
        k(  411) = (   0.0000000   0.3464102   0.2458573), wk =   0.0001920
        k(  412) = (   0.0000000   0.3464102   0.2581502), wk =   0.0001920
        k(  413) = (   0.0000000   0.3464102   0.2704430), wk =   0.0001920
        k(  414) = (   0.0000000   0.3464102   0.2827359), wk =   0.0001920
        k(  415) = (   0.0000000   0.3464102   0.2950288), wk =   0.0001920
        k(  416) = (   0.0000000   0.3464102  -0.3073216), wk =   0.0000960
        k(  417) = (   0.0000000   0.3695042   0.0000000), wk =   0.0000960
        k(  418) = (   0.0000000   0.3695042   0.0122929), wk =   0.0001920
        k(  419) = (   0.0000000   0.3695042   0.0245857), wk =   0.0001920
        k(  420) = (   0.0000000   0.3695042   0.0368786), wk =   0.0001920
        k(  421) = (   0.0000000   0.3695042   0.0491715), wk =   0.0001920
        k(  422) = (   0.0000000   0.3695042   0.0614643), wk =   0.0001920
        k(  423) = (   0.0000000   0.3695042   0.0737572), wk =   0.0001920
        k(  424) = (   0.0000000   0.3695042   0.0860501), wk =   0.0001920
        k(  425) = (   0.0000000   0.3695042   0.0983429), wk =   0.0001920
        k(  426) = (   0.0000000   0.3695042   0.1106358), wk =   0.0001920
        k(  427) = (   0.0000000   0.3695042   0.1229287), wk =   0.0001920
        k(  428) = (   0.0000000   0.3695042   0.1352215), wk =   0.0001920
        k(  429) = (   0.0000000   0.3695042   0.1475144), wk =   0.0001920
        k(  430) = (   0.0000000   0.3695042   0.1598072), wk =   0.0001920
        k(  431) = (   0.0000000   0.3695042   0.1721001), wk =   0.0001920
        k(  432) = (   0.0000000   0.3695042   0.1843930), wk =   0.0001920
        k(  433) = (   0.0000000   0.3695042   0.1966858), wk =   0.0001920
        k(  434) = (   0.0000000   0.3695042   0.2089787), wk =   0.0001920
        k(  435) = (   0.0000000   0.3695042   0.2212716), wk =   0.0001920
        k(  436) = (   0.0000000   0.3695042   0.2335644), wk =   0.0001920
        k(  437) = (   0.0000000   0.3695042   0.2458573), wk =   0.0001920
        k(  438) = (   0.0000000   0.3695042   0.2581502), wk =   0.0001920
        k(  439) = (   0.0000000   0.3695042   0.2704430), wk =   0.0001920
        k(  440) = (   0.0000000   0.3695042   0.2827359), wk =   0.0001920
        k(  441) = (   0.0000000   0.3695042   0.2950288), wk =   0.0001920
        k(  442) = (   0.0000000   0.3695042  -0.3073216), wk =   0.0000960
        k(  443) = (   0.0000000   0.3925982   0.0000000), wk =   0.0000960
        k(  444) = (   0.0000000   0.3925982   0.0122929), wk =   0.0001920
        k(  445) = (   0.0000000   0.3925982   0.0245857), wk =   0.0001920
        k(  446) = (   0.0000000   0.3925982   0.0368786), wk =   0.0001920
        k(  447) = (   0.0000000   0.3925982   0.0491715), wk =   0.0001920
        k(  448) = (   0.0000000   0.3925982   0.0614643), wk =   0.0001920
        k(  449) = (   0.0000000   0.3925982   0.0737572), wk =   0.0001920
        k(  450) = (   0.0000000   0.3925982   0.0860501), wk =   0.0001920
        k(  451) = (   0.0000000   0.3925982   0.0983429), wk =   0.0001920
        k(  452) = (   0.0000000   0.3925982   0.1106358), wk =   0.0001920
        k(  453) = (   0.0000000   0.3925982   0.1229287), wk =   0.0001920
        k(  454) = (   0.0000000   0.3925982   0.1352215), wk =   0.0001920
        k(  455) = (   0.0000000   0.3925982   0.1475144), wk =   0.0001920
        k(  456) = (   0.0000000   0.3925982   0.1598072), wk =   0.0001920
        k(  457) = (   0.0000000   0.3925982   0.1721001), wk =   0.0001920
        k(  458) = (   0.0000000   0.3925982   0.1843930), wk =   0.0001920
        k(  459) = (   0.0000000   0.3925982   0.1966858), wk =   0.0001920
        k(  460) = (   0.0000000   0.3925982   0.2089787), wk =   0.0001920
        k(  461) = (   0.0000000   0.3925982   0.2212716), wk =   0.0001920
        k(  462) = (   0.0000000   0.3925982   0.2335644), wk =   0.0001920
        k(  463) = (   0.0000000   0.3925982   0.2458573), wk =   0.0001920
        k(  464) = (   0.0000000   0.3925982   0.2581502), wk =   0.0001920
        k(  465) = (   0.0000000   0.3925982   0.2704430), wk =   0.0001920
        k(  466) = (   0.0000000   0.3925982   0.2827359), wk =   0.0001920
        k(  467) = (   0.0000000   0.3925982   0.2950288), wk =   0.0001920
        k(  468) = (   0.0000000   0.3925982  -0.3073216), wk =   0.0000960
        k(  469) = (   0.0000000   0.4156922   0.0000000), wk =   0.0000960
        k(  470) = (   0.0000000   0.4156922   0.0122929), wk =   0.0001920
        k(  471) = (   0.0000000   0.4156922   0.0245857), wk =   0.0001920
        k(  472) = (   0.0000000   0.4156922   0.0368786), wk =   0.0001920
        k(  473) = (   0.0000000   0.4156922   0.0491715), wk =   0.0001920
        k(  474) = (   0.0000000   0.4156922   0.0614643), wk =   0.0001920
        k(  475) = (   0.0000000   0.4156922   0.0737572), wk =   0.0001920
        k(  476) = (   0.0000000   0.4156922   0.0860501), wk =   0.0001920
        k(  477) = (   0.0000000   0.4156922   0.0983429), wk =   0.0001920
        k(  478) = (   0.0000000   0.4156922   0.1106358), wk =   0.0001920
        k(  479) = (   0.0000000   0.4156922   0.1229287), wk =   0.0001920
        k(  480) = (   0.0000000   0.4156922   0.1352215), wk =   0.0001920
        k(  481) = (   0.0000000   0.4156922   0.1475144), wk =   0.0001920
        k(  482) = (   0.0000000   0.4156922   0.1598072), wk =   0.0001920
        k(  483) = (   0.0000000   0.4156922   0.1721001), wk =   0.0001920
        k(  484) = (   0.0000000   0.4156922   0.1843930), wk =   0.0001920
        k(  485) = (   0.0000000   0.4156922   0.1966858), wk =   0.0001920
        k(  486) = (   0.0000000   0.4156922   0.2089787), wk =   0.0001920
        k(  487) = (   0.0000000   0.4156922   0.2212716), wk =   0.0001920
        k(  488) = (   0.0000000   0.4156922   0.2335644), wk =   0.0001920
        k(  489) = (   0.0000000   0.4156922   0.2458573), wk =   0.0001920
        k(  490) = (   0.0000000   0.4156922   0.2581502), wk =   0.0001920
        k(  491) = (   0.0000000   0.4156922   0.2704430), wk =   0.0001920
        k(  492) = (   0.0000000   0.4156922   0.2827359), wk =   0.0001920
        k(  493) = (   0.0000000   0.4156922   0.2950288), wk =   0.0001920
        k(  494) = (   0.0000000   0.4156922  -0.3073216), wk =   0.0000960
        k(  495) = (   0.0000000   0.4387862   0.0000000), wk =   0.0000960
        k(  496) = (   0.0000000   0.4387862   0.0122929), wk =   0.0001920
        k(  497) = (   0.0000000   0.4387862   0.0245857), wk =   0.0001920
        k(  498) = (   0.0000000   0.4387862   0.0368786), wk =   0.0001920
        k(  499) = (   0.0000000   0.4387862   0.0491715), wk =   0.0001920
        k(  500) = (   0.0000000   0.4387862   0.0614643), wk =   0.0001920
        k(  501) = (   0.0000000   0.4387862   0.0737572), wk =   0.0001920
        k(  502) = (   0.0000000   0.4387862   0.0860501), wk =   0.0001920
        k(  503) = (   0.0000000   0.4387862   0.0983429), wk =   0.0001920
        k(  504) = (   0.0000000   0.4387862   0.1106358), wk =   0.0001920
        k(  505) = (   0.0000000   0.4387862   0.1229287), wk =   0.0001920
        k(  506) = (   0.0000000   0.4387862   0.1352215), wk =   0.0001920
        k(  507) = (   0.0000000   0.4387862   0.1475144), wk =   0.0001920
        k(  508) = (   0.0000000   0.4387862   0.1598072), wk =   0.0001920
        k(  509) = (   0.0000000   0.4387862   0.1721001), wk =   0.0001920
        k(  510) = (   0.0000000   0.4387862   0.1843930), wk =   0.0001920
        k(  511) = (   0.0000000   0.4387862   0.1966858), wk =   0.0001920
        k(  512) = (   0.0000000   0.4387862   0.2089787), wk =   0.0001920
        k(  513) = (   0.0000000   0.4387862   0.2212716), wk =   0.0001920
        k(  514) = (   0.0000000   0.4387862   0.2335644), wk =   0.0001920
        k(  515) = (   0.0000000   0.4387862   0.2458573), wk =   0.0001920
        k(  516) = (   0.0000000   0.4387862   0.2581502), wk =   0.0001920
        k(  517) = (   0.0000000   0.4387862   0.2704430), wk =   0.0001920
        k(  518) = (   0.0000000   0.4387862   0.2827359), wk =   0.0001920
        k(  519) = (   0.0000000   0.4387862   0.2950288), wk =   0.0001920
        k(  520) = (   0.0000000   0.4387862  -0.3073216), wk =   0.0000960
        k(  521) = (   0.0000000   0.4618802   0.0000000), wk =   0.0000960
        k(  522) = (   0.0000000   0.4618802   0.0122929), wk =   0.0001920
        k(  523) = (   0.0000000   0.4618802   0.0245857), wk =   0.0001920
        k(  524) = (   0.0000000   0.4618802   0.0368786), wk =   0.0001920
        k(  525) = (   0.0000000   0.4618802   0.0491715), wk =   0.0001920
        k(  526) = (   0.0000000   0.4618802   0.0614643), wk =   0.0001920
        k(  527) = (   0.0000000   0.4618802   0.0737572), wk =   0.0001920
        k(  528) = (   0.0000000   0.4618802   0.0860501), wk =   0.0001920
        k(  529) = (   0.0000000   0.4618802   0.0983429), wk =   0.0001920
        k(  530) = (   0.0000000   0.4618802   0.1106358), wk =   0.0001920
        k(  531) = (   0.0000000   0.4618802   0.1229287), wk =   0.0001920
        k(  532) = (   0.0000000   0.4618802   0.1352215), wk =   0.0001920
        k(  533) = (   0.0000000   0.4618802   0.1475144), wk =   0.0001920
        k(  534) = (   0.0000000   0.4618802   0.1598072), wk =   0.0001920
        k(  535) = (   0.0000000   0.4618802   0.1721001), wk =   0.0001920
        k(  536) = (   0.0000000   0.4618802   0.1843930), wk =   0.0001920
        k(  537) = (   0.0000000   0.4618802   0.1966858), wk =   0.0001920
        k(  538) = (   0.0000000   0.4618802   0.2089787), wk =   0.0001920
        k(  539) = (   0.0000000   0.4618802   0.2212716), wk =   0.0001920
        k(  540) = (   0.0000000   0.4618802   0.2335644), wk =   0.0001920
        k(  541) = (   0.0000000   0.4618802   0.2458573), wk =   0.0001920
        k(  542) = (   0.0000000   0.4618802   0.2581502), wk =   0.0001920
        k(  543) = (   0.0000000   0.4618802   0.2704430), wk =   0.0001920
        k(  544) = (   0.0000000   0.4618802   0.2827359), wk =   0.0001920
        k(  545) = (   0.0000000   0.4618802   0.2950288), wk =   0.0001920
        k(  546) = (   0.0000000   0.4618802  -0.3073216), wk =   0.0000960
        k(  547) = (   0.0000000   0.4849742   0.0000000), wk =   0.0000960
        k(  548) = (   0.0000000   0.4849742   0.0122929), wk =   0.0001920
        k(  549) = (   0.0000000   0.4849742   0.0245857), wk =   0.0001920
        k(  550) = (   0.0000000   0.4849742   0.0368786), wk =   0.0001920
        k(  551) = (   0.0000000   0.4849742   0.0491715), wk =   0.0001920
        k(  552) = (   0.0000000   0.4849742   0.0614643), wk =   0.0001920
        k(  553) = (   0.0000000   0.4849742   0.0737572), wk =   0.0001920
        k(  554) = (   0.0000000   0.4849742   0.0860501), wk =   0.0001920
        k(  555) = (   0.0000000   0.4849742   0.0983429), wk =   0.0001920
        k(  556) = (   0.0000000   0.4849742   0.1106358), wk =   0.0001920
        k(  557) = (   0.0000000   0.4849742   0.1229287), wk =   0.0001920
        k(  558) = (   0.0000000   0.4849742   0.1352215), wk =   0.0001920
        k(  559) = (   0.0000000   0.4849742   0.1475144), wk =   0.0001920
        k(  560) = (   0.0000000   0.4849742   0.1598072), wk =   0.0001920
        k(  561) = (   0.0000000   0.4849742   0.1721001), wk =   0.0001920
        k(  562) = (   0.0000000   0.4849742   0.1843930), wk =   0.0001920
        k(  563) = (   0.0000000   0.4849742   0.1966858), wk =   0.0001920
        k(  564) = (   0.0000000   0.4849742   0.2089787), wk =   0.0001920
        k(  565) = (   0.0000000   0.4849742   0.2212716), wk =   0.0001920
        k(  566) = (   0.0000000   0.4849742   0.2335644), wk =   0.0001920
        k(  567) = (   0.0000000   0.4849742   0.2458573), wk =   0.0001920
        k(  568) = (   0.0000000   0.4849742   0.2581502), wk =   0.0001920
        k(  569) = (   0.0000000   0.4849742   0.2704430), wk =   0.0001920
        k(  570) = (   0.0000000   0.4849742   0.2827359), wk =   0.0001920
        k(  571) = (   0.0000000   0.4849742   0.2950288), wk =   0.0001920
        k(  572) = (   0.0000000   0.4849742  -0.3073216), wk =   0.0000960
        k(  573) = (   0.0000000   0.5080682   0.0000000), wk =   0.0000960
        k(  574) = (   0.0000000   0.5080682   0.0122929), wk =   0.0001920
        k(  575) = (   0.0000000   0.5080682   0.0245857), wk =   0.0001920
        k(  576) = (   0.0000000   0.5080682   0.0368786), wk =   0.0001920
        k(  577) = (   0.0000000   0.5080682   0.0491715), wk =   0.0001920
        k(  578) = (   0.0000000   0.5080682   0.0614643), wk =   0.0001920
        k(  579) = (   0.0000000   0.5080682   0.0737572), wk =   0.0001920
        k(  580) = (   0.0000000   0.5080682   0.0860501), wk =   0.0001920
        k(  581) = (   0.0000000   0.5080682   0.0983429), wk =   0.0001920
        k(  582) = (   0.0000000   0.5080682   0.1106358), wk =   0.0001920
        k(  583) = (   0.0000000   0.5080682   0.1229287), wk =   0.0001920
        k(  584) = (   0.0000000   0.5080682   0.1352215), wk =   0.0001920
        k(  585) = (   0.0000000   0.5080682   0.1475144), wk =   0.0001920
        k(  586) = (   0.0000000   0.5080682   0.1598072), wk =   0.0001920
        k(  587) = (   0.0000000   0.5080682   0.1721001), wk =   0.0001920
        k(  588) = (   0.0000000   0.5080682   0.1843930), wk =   0.0001920
        k(  589) = (   0.0000000   0.5080682   0.1966858), wk =   0.0001920
        k(  590) = (   0.0000000   0.5080682   0.2089787), wk =   0.0001920
        k(  591) = (   0.0000000   0.5080682   0.2212716), wk =   0.0001920
        k(  592) = (   0.0000000   0.5080682   0.2335644), wk =   0.0001920
        k(  593) = (   0.0000000   0.5080682   0.2458573), wk =   0.0001920
        k(  594) = (   0.0000000   0.5080682   0.2581502), wk =   0.0001920
        k(  595) = (   0.0000000   0.5080682   0.2704430), wk =   0.0001920
        k(  596) = (   0.0000000   0.5080682   0.2827359), wk =   0.0001920
        k(  597) = (   0.0000000   0.5080682   0.2950288), wk =   0.0001920
        k(  598) = (   0.0000000   0.5080682  -0.3073216), wk =   0.0000960
        k(  599) = (   0.0000000   0.5311622   0.0000000), wk =   0.0000960
        k(  600) = (   0.0000000   0.5311622   0.0122929), wk =   0.0001920
        k(  601) = (   0.0000000   0.5311622   0.0245857), wk =   0.0001920
        k(  602) = (   0.0000000   0.5311622   0.0368786), wk =   0.0001920
        k(  603) = (   0.0000000   0.5311622   0.0491715), wk =   0.0001920
        k(  604) = (   0.0000000   0.5311622   0.0614643), wk =   0.0001920
        k(  605) = (   0.0000000   0.5311622   0.0737572), wk =   0.0001920
        k(  606) = (   0.0000000   0.5311622   0.0860501), wk =   0.0001920
        k(  607) = (   0.0000000   0.5311622   0.0983429), wk =   0.0001920
        k(  608) = (   0.0000000   0.5311622   0.1106358), wk =   0.0001920
        k(  609) = (   0.0000000   0.5311622   0.1229287), wk =   0.0001920
        k(  610) = (   0.0000000   0.5311622   0.1352215), wk =   0.0001920
        k(  611) = (   0.0000000   0.5311622   0.1475144), wk =   0.0001920
        k(  612) = (   0.0000000   0.5311622   0.1598072), wk =   0.0001920
        k(  613) = (   0.0000000   0.5311622   0.1721001), wk =   0.0001920
        k(  614) = (   0.0000000   0.5311622   0.1843930), wk =   0.0001920
        k(  615) = (   0.0000000   0.5311622   0.1966858), wk =   0.0001920
        k(  616) = (   0.0000000   0.5311622   0.2089787), wk =   0.0001920
        k(  617) = (   0.0000000   0.5311622   0.2212716), wk =   0.0001920
        k(  618) = (   0.0000000   0.5311622   0.2335644), wk =   0.0001920
        k(  619) = (   0.0000000   0.5311622   0.2458573), wk =   0.0001920
        k(  620) = (   0.0000000   0.5311622   0.2581502), wk =   0.0001920
        k(  621) = (   0.0000000   0.5311622   0.2704430), wk =   0.0001920
        k(  622) = (   0.0000000   0.5311622   0.2827359), wk =   0.0001920
        k(  623) = (   0.0000000   0.5311622   0.2950288), wk =   0.0001920
        k(  624) = (   0.0000000   0.5311622  -0.3073216), wk =   0.0000960
        k(  625) = (   0.0000000   0.5542563   0.0000000), wk =   0.0000960
        k(  626) = (   0.0000000   0.5542563   0.0122929), wk =   0.0001920
        k(  627) = (   0.0000000   0.5542563   0.0245857), wk =   0.0001920
        k(  628) = (   0.0000000   0.5542563   0.0368786), wk =   0.0001920
        k(  629) = (   0.0000000   0.5542563   0.0491715), wk =   0.0001920
        k(  630) = (   0.0000000   0.5542563   0.0614643), wk =   0.0001920
        k(  631) = (   0.0000000   0.5542563   0.0737572), wk =   0.0001920
        k(  632) = (   0.0000000   0.5542563   0.0860501), wk =   0.0001920
        k(  633) = (   0.0000000   0.5542563   0.0983429), wk =   0.0001920
        k(  634) = (   0.0000000   0.5542563   0.1106358), wk =   0.0001920
        k(  635) = (   0.0000000   0.5542563   0.1229287), wk =   0.0001920
        k(  636) = (   0.0000000   0.5542563   0.1352215), wk =   0.0001920
        k(  637) = (   0.0000000   0.5542563   0.1475144), wk =   0.0001920
        k(  638) = (   0.0000000   0.5542563   0.1598072), wk =   0.0001920
        k(  639) = (   0.0000000   0.5542563   0.1721001), wk =   0.0001920
        k(  640) = (   0.0000000   0.5542563   0.1843930), wk =   0.0001920
        k(  641) = (   0.0000000   0.5542563   0.1966858), wk =   0.0001920
        k(  642) = (   0.0000000   0.5542563   0.2089787), wk =   0.0001920
        k(  643) = (   0.0000000   0.5542563   0.2212716), wk =   0.0001920
        k(  644) = (   0.0000000   0.5542563   0.2335644), wk =   0.0001920
        k(  645) = (   0.0000000   0.5542563   0.2458573), wk =   0.0001920
        k(  646) = (   0.0000000   0.5542563   0.2581502), wk =   0.0001920
        k(  647) = (   0.0000000   0.5542563   0.2704430), wk =   0.0001920
        k(  648) = (   0.0000000   0.5542563   0.2827359), wk =   0.0001920
        k(  649) = (   0.0000000   0.5542563   0.2950288), wk =   0.0001920
        k(  650) = (   0.0000000   0.5542563  -0.3073216), wk =   0.0000960
        k(  651) = (   0.0000000  -0.5773503   0.0000000), wk =   0.0000480
        k(  652) = (   0.0000000  -0.5773503   0.0122929), wk =   0.0000960
        k(  653) = (   0.0000000  -0.5773503   0.0245857), wk =   0.0000960
        k(  654) = (   0.0000000  -0.5773503   0.0368786), wk =   0.0000960
        k(  655) = (   0.0000000  -0.5773503   0.0491715), wk =   0.0000960
        k(  656) = (   0.0000000  -0.5773503   0.0614643), wk =   0.0000960
        k(  657) = (   0.0000000  -0.5773503   0.0737572), wk =   0.0000960
        k(  658) = (   0.0000000  -0.5773503   0.0860501), wk =   0.0000960
        k(  659) = (   0.0000000  -0.5773503   0.0983429), wk =   0.0000960
        k(  660) = (   0.0000000  -0.5773503   0.1106358), wk =   0.0000960
        k(  661) = (   0.0000000  -0.5773503   0.1229287), wk =   0.0000960
        k(  662) = (   0.0000000  -0.5773503   0.1352215), wk =   0.0000960
        k(  663) = (   0.0000000  -0.5773503   0.1475144), wk =   0.0000960
        k(  664) = (   0.0000000  -0.5773503   0.1598072), wk =   0.0000960
        k(  665) = (   0.0000000  -0.5773503   0.1721001), wk =   0.0000960
        k(  666) = (   0.0000000  -0.5773503   0.1843930), wk =   0.0000960
        k(  667) = (   0.0000000  -0.5773503   0.1966858), wk =   0.0000960
        k(  668) = (   0.0000000  -0.5773503   0.2089787), wk =   0.0000960
        k(  669) = (   0.0000000  -0.5773503   0.2212716), wk =   0.0000960
        k(  670) = (   0.0000000  -0.5773503   0.2335644), wk =   0.0000960
        k(  671) = (   0.0000000  -0.5773503   0.2458573), wk =   0.0000960
        k(  672) = (   0.0000000  -0.5773503   0.2581502), wk =   0.0000960
        k(  673) = (   0.0000000  -0.5773503   0.2704430), wk =   0.0000960
        k(  674) = (   0.0000000  -0.5773503   0.2827359), wk =   0.0000960
        k(  675) = (   0.0000000  -0.5773503   0.2950288), wk =   0.0000960
        k(  676) = (   0.0000000  -0.5773503  -0.3073216), wk =   0.0000480
        k(  677) = (   0.0200000   0.0346410   0.0000000), wk =   0.0000960
        k(  678) = (   0.0200000   0.0346410   0.0122929), wk =   0.0001920
        k(  679) = (   0.0200000   0.0346410   0.0245857), wk =   0.0001920
        k(  680) = (   0.0200000   0.0346410   0.0368786), wk =   0.0001920
        k(  681) = (   0.0200000   0.0346410   0.0491715), wk =   0.0001920
        k(  682) = (   0.0200000   0.0346410   0.0614643), wk =   0.0001920
        k(  683) = (   0.0200000   0.0346410   0.0737572), wk =   0.0001920
        k(  684) = (   0.0200000   0.0346410   0.0860501), wk =   0.0001920
        k(  685) = (   0.0200000   0.0346410   0.0983429), wk =   0.0001920
        k(  686) = (   0.0200000   0.0346410   0.1106358), wk =   0.0001920
        k(  687) = (   0.0200000   0.0346410   0.1229287), wk =   0.0001920
        k(  688) = (   0.0200000   0.0346410   0.1352215), wk =   0.0001920
        k(  689) = (   0.0200000   0.0346410   0.1475144), wk =   0.0001920
        k(  690) = (   0.0200000   0.0346410   0.1598072), wk =   0.0001920
        k(  691) = (   0.0200000   0.0346410   0.1721001), wk =   0.0001920
        k(  692) = (   0.0200000   0.0346410   0.1843930), wk =   0.0001920
        k(  693) = (   0.0200000   0.0346410   0.1966858), wk =   0.0001920
        k(  694) = (   0.0200000   0.0346410   0.2089787), wk =   0.0001920
        k(  695) = (   0.0200000   0.0346410   0.2212716), wk =   0.0001920
        k(  696) = (   0.0200000   0.0346410   0.2335644), wk =   0.0001920
        k(  697) = (   0.0200000   0.0346410   0.2458573), wk =   0.0001920
        k(  698) = (   0.0200000   0.0346410   0.2581502), wk =   0.0001920
        k(  699) = (   0.0200000   0.0346410   0.2704430), wk =   0.0001920
        k(  700) = (   0.0200000   0.0346410   0.2827359), wk =   0.0001920
        k(  701) = (   0.0200000   0.0346410   0.2950288), wk =   0.0001920
        k(  702) = (   0.0200000   0.0346410  -0.3073216), wk =   0.0000960
        k(  703) = (   0.0200000   0.0577350   0.0000000), wk =   0.0001920
        k(  704) = (   0.0200000   0.0577350   0.0122929), wk =   0.0003840
        k(  705) = (   0.0200000   0.0577350   0.0245857), wk =   0.0003840
        k(  706) = (   0.0200000   0.0577350   0.0368786), wk =   0.0003840
        k(  707) = (   0.0200000   0.0577350   0.0491715), wk =   0.0003840
        k(  708) = (   0.0200000   0.0577350   0.0614643), wk =   0.0003840
        k(  709) = (   0.0200000   0.0577350   0.0737572), wk =   0.0003840
        k(  710) = (   0.0200000   0.0577350   0.0860501), wk =   0.0003840
        k(  711) = (   0.0200000   0.0577350   0.0983429), wk =   0.0003840
        k(  712) = (   0.0200000   0.0577350   0.1106358), wk =   0.0003840
        k(  713) = (   0.0200000   0.0577350   0.1229287), wk =   0.0003840
        k(  714) = (   0.0200000   0.0577350   0.1352215), wk =   0.0003840
        k(  715) = (   0.0200000   0.0577350   0.1475144), wk =   0.0003840
        k(  716) = (   0.0200000   0.0577350   0.1598072), wk =   0.0003840
        k(  717) = (   0.0200000   0.0577350   0.1721001), wk =   0.0003840
        k(  718) = (   0.0200000   0.0577350   0.1843930), wk =   0.0003840
        k(  719) = (   0.0200000   0.0577350   0.1966858), wk =   0.0003840
        k(  720) = (   0.0200000   0.0577350   0.2089787), wk =   0.0003840
        k(  721) = (   0.0200000   0.0577350   0.2212716), wk =   0.0003840
        k(  722) = (   0.0200000   0.0577350   0.2335644), wk =   0.0003840
        k(  723) = (   0.0200000   0.0577350   0.2458573), wk =   0.0003840
        k(  724) = (   0.0200000   0.0577350   0.2581502), wk =   0.0003840
        k(  725) = (   0.0200000   0.0577350   0.2704430), wk =   0.0003840
        k(  726) = (   0.0200000   0.0577350   0.2827359), wk =   0.0003840
        k(  727) = (   0.0200000   0.0577350   0.2950288), wk =   0.0003840
        k(  728) = (   0.0200000   0.0577350  -0.3073216), wk =   0.0001920
        k(  729) = (   0.0200000   0.0808290   0.0000000), wk =   0.0001920
        k(  730) = (   0.0200000   0.0808290   0.0122929), wk =   0.0003840
        k(  731) = (   0.0200000   0.0808290   0.0245857), wk =   0.0003840
        k(  732) = (   0.0200000   0.0808290   0.0368786), wk =   0.0003840
        k(  733) = (   0.0200000   0.0808290   0.0491715), wk =   0.0003840
        k(  734) = (   0.0200000   0.0808290   0.0614643), wk =   0.0003840
        k(  735) = (   0.0200000   0.0808290   0.0737572), wk =   0.0003840
        k(  736) = (   0.0200000   0.0808290   0.0860501), wk =   0.0003840
        k(  737) = (   0.0200000   0.0808290   0.0983429), wk =   0.0003840
        k(  738) = (   0.0200000   0.0808290   0.1106358), wk =   0.0003840
        k(  739) = (   0.0200000   0.0808290   0.1229287), wk =   0.0003840
        k(  740) = (   0.0200000   0.0808290   0.1352215), wk =   0.0003840
        k(  741) = (   0.0200000   0.0808290   0.1475144), wk =   0.0003840
        k(  742) = (   0.0200000   0.0808290   0.1598072), wk =   0.0003840
        k(  743) = (   0.0200000   0.0808290   0.1721001), wk =   0.0003840
        k(  744) = (   0.0200000   0.0808290   0.1843930), wk =   0.0003840
        k(  745) = (   0.0200000   0.0808290   0.1966858), wk =   0.0003840
        k(  746) = (   0.0200000   0.0808290   0.2089787), wk =   0.0003840
        k(  747) = (   0.0200000   0.0808290   0.2212716), wk =   0.0003840
        k(  748) = (   0.0200000   0.0808290   0.2335644), wk =   0.0003840
        k(  749) = (   0.0200000   0.0808290   0.2458573), wk =   0.0003840
        k(  750) = (   0.0200000   0.0808290   0.2581502), wk =   0.0003840
        k(  751) = (   0.0200000   0.0808290   0.2704430), wk =   0.0003840
        k(  752) = (   0.0200000   0.0808290   0.2827359), wk =   0.0003840
        k(  753) = (   0.0200000   0.0808290   0.2950288), wk =   0.0003840
        k(  754) = (   0.0200000   0.0808290  -0.3073216), wk =   0.0001920
        k(  755) = (   0.0200000   0.1039230   0.0000000), wk =   0.0001920
        k(  756) = (   0.0200000   0.1039230   0.0122929), wk =   0.0003840
        k(  757) = (   0.0200000   0.1039230   0.0245857), wk =   0.0003840
        k(  758) = (   0.0200000   0.1039230   0.0368786), wk =   0.0003840
        k(  759) = (   0.0200000   0.1039230   0.0491715), wk =   0.0003840
        k(  760) = (   0.0200000   0.1039230   0.0614643), wk =   0.0003840
        k(  761) = (   0.0200000   0.1039230   0.0737572), wk =   0.0003840
        k(  762) = (   0.0200000   0.1039230   0.0860501), wk =   0.0003840
        k(  763) = (   0.0200000   0.1039230   0.0983429), wk =   0.0003840
        k(  764) = (   0.0200000   0.1039230   0.1106358), wk =   0.0003840
        k(  765) = (   0.0200000   0.1039230   0.1229287), wk =   0.0003840
        k(  766) = (   0.0200000   0.1039230   0.1352215), wk =   0.0003840
        k(  767) = (   0.0200000   0.1039230   0.1475144), wk =   0.0003840
        k(  768) = (   0.0200000   0.1039230   0.1598072), wk =   0.0003840
        k(  769) = (   0.0200000   0.1039230   0.1721001), wk =   0.0003840
        k(  770) = (   0.0200000   0.1039230   0.1843930), wk =   0.0003840
        k(  771) = (   0.0200000   0.1039230   0.1966858), wk =   0.0003840
        k(  772) = (   0.0200000   0.1039230   0.2089787), wk =   0.0003840
        k(  773) = (   0.0200000   0.1039230   0.2212716), wk =   0.0003840
        k(  774) = (   0.0200000   0.1039230   0.2335644), wk =   0.0003840
        k(  775) = (   0.0200000   0.1039230   0.2458573), wk =   0.0003840
        k(  776) = (   0.0200000   0.1039230   0.2581502), wk =   0.0003840
        k(  777) = (   0.0200000   0.1039230   0.2704430), wk =   0.0003840
        k(  778) = (   0.0200000   0.1039230   0.2827359), wk =   0.0003840
        k(  779) = (   0.0200000   0.1039230   0.2950288), wk =   0.0003840
        k(  780) = (   0.0200000   0.1039230  -0.3073216), wk =   0.0001920
        k(  781) = (   0.0200000   0.1270171   0.0000000), wk =   0.0001920
        k(  782) = (   0.0200000   0.1270171   0.0122929), wk =   0.0003840
        k(  783) = (   0.0200000   0.1270171   0.0245857), wk =   0.0003840
        k(  784) = (   0.0200000   0.1270171   0.0368786), wk =   0.0003840
        k(  785) = (   0.0200000   0.1270171   0.0491715), wk =   0.0003840
        k(  786) = (   0.0200000   0.1270171   0.0614643), wk =   0.0003840
        k(  787) = (   0.0200000   0.1270171   0.0737572), wk =   0.0003840
        k(  788) = (   0.0200000   0.1270171   0.0860501), wk =   0.0003840
        k(  789) = (   0.0200000   0.1270171   0.0983429), wk =   0.0003840
        k(  790) = (   0.0200000   0.1270171   0.1106358), wk =   0.0003840
        k(  791) = (   0.0200000   0.1270171   0.1229287), wk =   0.0003840
        k(  792) = (   0.0200000   0.1270171   0.1352215), wk =   0.0003840
        k(  793) = (   0.0200000   0.1270171   0.1475144), wk =   0.0003840
        k(  794) = (   0.0200000   0.1270171   0.1598072), wk =   0.0003840
        k(  795) = (   0.0200000   0.1270171   0.1721001), wk =   0.0003840
        k(  796) = (   0.0200000   0.1270171   0.1843930), wk =   0.0003840
        k(  797) = (   0.0200000   0.1270171   0.1966858), wk =   0.0003840
        k(  798) = (   0.0200000   0.1270171   0.2089787), wk =   0.0003840
        k(  799) = (   0.0200000   0.1270171   0.2212716), wk =   0.0003840
        k(  800) = (   0.0200000   0.1270171   0.2335644), wk =   0.0003840
        k(  801) = (   0.0200000   0.1270171   0.2458573), wk =   0.0003840
        k(  802) = (   0.0200000   0.1270171   0.2581502), wk =   0.0003840
        k(  803) = (   0.0200000   0.1270171   0.2704430), wk =   0.0003840
        k(  804) = (   0.0200000   0.1270171   0.2827359), wk =   0.0003840
        k(  805) = (   0.0200000   0.1270171   0.2950288), wk =   0.0003840
        k(  806) = (   0.0200000   0.1270171  -0.3073216), wk =   0.0001920
        k(  807) = (   0.0200000   0.1501111   0.0000000), wk =   0.0001920
        k(  808) = (   0.0200000   0.1501111   0.0122929), wk =   0.0003840
        k(  809) = (   0.0200000   0.1501111   0.0245857), wk =   0.0003840
        k(  810) = (   0.0200000   0.1501111   0.0368786), wk =   0.0003840
        k(  811) = (   0.0200000   0.1501111   0.0491715), wk =   0.0003840
        k(  812) = (   0.0200000   0.1501111   0.0614643), wk =   0.0003840
        k(  813) = (   0.0200000   0.1501111   0.0737572), wk =   0.0003840
        k(  814) = (   0.0200000   0.1501111   0.0860501), wk =   0.0003840
        k(  815) = (   0.0200000   0.1501111   0.0983429), wk =   0.0003840
        k(  816) = (   0.0200000   0.1501111   0.1106358), wk =   0.0003840
        k(  817) = (   0.0200000   0.1501111   0.1229287), wk =   0.0003840
        k(  818) = (   0.0200000   0.1501111   0.1352215), wk =   0.0003840
        k(  819) = (   0.0200000   0.1501111   0.1475144), wk =   0.0003840
        k(  820) = (   0.0200000   0.1501111   0.1598072), wk =   0.0003840
        k(  821) = (   0.0200000   0.1501111   0.1721001), wk =   0.0003840
        k(  822) = (   0.0200000   0.1501111   0.1843930), wk =   0.0003840
        k(  823) = (   0.0200000   0.1501111   0.1966858), wk =   0.0003840
        k(  824) = (   0.0200000   0.1501111   0.2089787), wk =   0.0003840
        k(  825) = (   0.0200000   0.1501111   0.2212716), wk =   0.0003840
        k(  826) = (   0.0200000   0.1501111   0.2335644), wk =   0.0003840
        k(  827) = (   0.0200000   0.1501111   0.2458573), wk =   0.0003840
        k(  828) = (   0.0200000   0.1501111   0.2581502), wk =   0.0003840
        k(  829) = (   0.0200000   0.1501111   0.2704430), wk =   0.0003840
        k(  830) = (   0.0200000   0.1501111   0.2827359), wk =   0.0003840
        k(  831) = (   0.0200000   0.1501111   0.2950288), wk =   0.0003840
        k(  832) = (   0.0200000   0.1501111  -0.3073216), wk =   0.0001920
        k(  833) = (   0.0200000   0.1732051   0.0000000), wk =   0.0001920
        k(  834) = (   0.0200000   0.1732051   0.0122929), wk =   0.0003840
        k(  835) = (   0.0200000   0.1732051   0.0245857), wk =   0.0003840
        k(  836) = (   0.0200000   0.1732051   0.0368786), wk =   0.0003840
        k(  837) = (   0.0200000   0.1732051   0.0491715), wk =   0.0003840
        k(  838) = (   0.0200000   0.1732051   0.0614643), wk =   0.0003840
        k(  839) = (   0.0200000   0.1732051   0.0737572), wk =   0.0003840
        k(  840) = (   0.0200000   0.1732051   0.0860501), wk =   0.0003840
        k(  841) = (   0.0200000   0.1732051   0.0983429), wk =   0.0003840
        k(  842) = (   0.0200000   0.1732051   0.1106358), wk =   0.0003840
        k(  843) = (   0.0200000   0.1732051   0.1229287), wk =   0.0003840
        k(  844) = (   0.0200000   0.1732051   0.1352215), wk =   0.0003840
        k(  845) = (   0.0200000   0.1732051   0.1475144), wk =   0.0003840
        k(  846) = (   0.0200000   0.1732051   0.1598072), wk =   0.0003840
        k(  847) = (   0.0200000   0.1732051   0.1721001), wk =   0.0003840
        k(  848) = (   0.0200000   0.1732051   0.1843930), wk =   0.0003840
        k(  849) = (   0.0200000   0.1732051   0.1966858), wk =   0.0003840
        k(  850) = (   0.0200000   0.1732051   0.2089787), wk =   0.0003840
        k(  851) = (   0.0200000   0.1732051   0.2212716), wk =   0.0003840
        k(  852) = (   0.0200000   0.1732051   0.2335644), wk =   0.0003840
        k(  853) = (   0.0200000   0.1732051   0.2458573), wk =   0.0003840
        k(  854) = (   0.0200000   0.1732051   0.2581502), wk =   0.0003840
        k(  855) = (   0.0200000   0.1732051   0.2704430), wk =   0.0003840
        k(  856) = (   0.0200000   0.1732051   0.2827359), wk =   0.0003840
        k(  857) = (   0.0200000   0.1732051   0.2950288), wk =   0.0003840
        k(  858) = (   0.0200000   0.1732051  -0.3073216), wk =   0.0001920
        k(  859) = (   0.0200000   0.1962991   0.0000000), wk =   0.0001920
        k(  860) = (   0.0200000   0.1962991   0.0122929), wk =   0.0003840
        k(  861) = (   0.0200000   0.1962991   0.0245857), wk =   0.0003840
        k(  862) = (   0.0200000   0.1962991   0.0368786), wk =   0.0003840
        k(  863) = (   0.0200000   0.1962991   0.0491715), wk =   0.0003840
        k(  864) = (   0.0200000   0.1962991   0.0614643), wk =   0.0003840
        k(  865) = (   0.0200000   0.1962991   0.0737572), wk =   0.0003840
        k(  866) = (   0.0200000   0.1962991   0.0860501), wk =   0.0003840
        k(  867) = (   0.0200000   0.1962991   0.0983429), wk =   0.0003840
        k(  868) = (   0.0200000   0.1962991   0.1106358), wk =   0.0003840
        k(  869) = (   0.0200000   0.1962991   0.1229287), wk =   0.0003840
        k(  870) = (   0.0200000   0.1962991   0.1352215), wk =   0.0003840
        k(  871) = (   0.0200000   0.1962991   0.1475144), wk =   0.0003840
        k(  872) = (   0.0200000   0.1962991   0.1598072), wk =   0.0003840
        k(  873) = (   0.0200000   0.1962991   0.1721001), wk =   0.0003840
        k(  874) = (   0.0200000   0.1962991   0.1843930), wk =   0.0003840
        k(  875) = (   0.0200000   0.1962991   0.1966858), wk =   0.0003840
        k(  876) = (   0.0200000   0.1962991   0.2089787), wk =   0.0003840
        k(  877) = (   0.0200000   0.1962991   0.2212716), wk =   0.0003840
        k(  878) = (   0.0200000   0.1962991   0.2335644), wk =   0.0003840
        k(  879) = (   0.0200000   0.1962991   0.2458573), wk =   0.0003840
        k(  880) = (   0.0200000   0.1962991   0.2581502), wk =   0.0003840
        k(  881) = (   0.0200000   0.1962991   0.2704430), wk =   0.0003840
        k(  882) = (   0.0200000   0.1962991   0.2827359), wk =   0.0003840
        k(  883) = (   0.0200000   0.1962991   0.2950288), wk =   0.0003840
        k(  884) = (   0.0200000   0.1962991  -0.3073216), wk =   0.0001920
        k(  885) = (   0.0200000   0.2193931   0.0000000), wk =   0.0001920
        k(  886) = (   0.0200000   0.2193931   0.0122929), wk =   0.0003840
        k(  887) = (   0.0200000   0.2193931   0.0245857), wk =   0.0003840
        k(  888) = (   0.0200000   0.2193931   0.0368786), wk =   0.0003840
        k(  889) = (   0.0200000   0.2193931   0.0491715), wk =   0.0003840
        k(  890) = (   0.0200000   0.2193931   0.0614643), wk =   0.0003840
        k(  891) = (   0.0200000   0.2193931   0.0737572), wk =   0.0003840
        k(  892) = (   0.0200000   0.2193931   0.0860501), wk =   0.0003840
        k(  893) = (   0.0200000   0.2193931   0.0983429), wk =   0.0003840
        k(  894) = (   0.0200000   0.2193931   0.1106358), wk =   0.0003840
        k(  895) = (   0.0200000   0.2193931   0.1229287), wk =   0.0003840
        k(  896) = (   0.0200000   0.2193931   0.1352215), wk =   0.0003840
        k(  897) = (   0.0200000   0.2193931   0.1475144), wk =   0.0003840
[...]
     1.0000   1.0000   1.0000   1.0000   1.0000   1.0000   1.0000   1.0000
     1.0000   1.0000   1.0000   1.0000   1.0000   1.0000   1.0000   1.0000
     1.0000   1.0000

          k = 0.3200 0.5543 0.1721 ( 14748 PWs)   bands (ev):

    -4.3310  -4.3191  -2.8855  -2.7960  -2.7876  -2.7298  -2.6692  -2.6628
    -2.6520  -2.6500  -0.9087  -0.8160   4.6924   4.7943   5.7718   7.3358
     8.4767   8.6940

     occupation numbers 
     1.0000   1.0000   1.0000   1.0000   1.0000   1.0000   1.0000   1.0000
     1.0000   1.0000   1.0000   1.0000   1.0000   1.0000   1.0000   1.0000
     1.0000   1.0000

          k = 0.3200 0.5543 0.1844 ( 14752 PWs)   bands (ev):

    -4.3278  -4.3168  -2.8788  -2.7997  -2.7919  -2.7332  -2.6693  -2.6624
    -2.6533  -2.6483  -0.9046  -0.8189   4.6527   4.7481   5.8224   7.2615
     8.5701   8.7733

     occupation numbers 
     1.0000   1.0000   1.0000   1.0000   1.0000   1.0000   1.0000   1.0000
     1.0000   1.0000   1.0000   1.0000   1.0000   1.0000   1.0000   1.0000
     1.0000   1.0000

          k = 0.3200 0.5543 0.1967 ( 14745 PWs)   bands (ev):

    -4.3246  -4.3147  -2.8719  -2.8032  -2.7960  -2.7373  -2.6695  -2.6637
    -2.6527  -2.6467  -0.9004  -0.8221   4.6164   4.7044   5.8762   7.1853
     8.6602   8.8480

     occupation numbers 
     1.0000   1.0000   1.0000   1.0000   1.0000   1.0000   1.0000   1.0000
     1.0000   1.0000   1.0000   1.0000   1.0000   1.0000   1.0000   1.0000
     1.0000   1.0000

          k = 0.3200 0.5543 0.2090 ( 14741 PWs)   bands (ev):

    -4.3216  -4.3127  -2.8646  -2.8063  -2.7998  -2.7420  -2.6699  -2.6657
    -2.6512  -2.6452  -0.8960  -0.8254   4.5838   4.6638   5.9332   7.1078
     8.7459   8.9170

     occupation numbers 
     1.0000   1.0000   1.0000   1.0000   1.0000   1.0000   1.0000   1.0000
     1.0000   1.0000   1.0000   1.0000   1.0000   1.0000   1.0000   1.0000
     1.0000   1.0000

          k = 0.3200 0.5543 0.2213 ( 14746 PWs)   bands (ev):

    -4.3188  -4.3109  -2.8571  -2.8091  -2.8032  -2.7475  -2.6703  -2.6676
    -2.6494  -2.6440  -0.8914  -0.8289   4.5551   4.6264   5.9930   7.0292
     8.8260   8.9792

     occupation numbers 
     1.0000   1.0000   1.0000   1.0000   1.0000   1.0000   1.0000   1.0000
     1.0000   1.0000   1.0000   1.0000   1.0000   1.0000   1.0000   1.0000
     1.0000   1.0000

          k = 0.3200 0.5543 0.2336 ( 14744 PWs)   bands (ev):

    -4.3161  -4.3094  -2.8493  -2.8115  -2.8063  -2.7536  -2.6708  -2.6693
    -2.6476  -2.6429  -0.8868  -0.8327   4.5307   4.5927   6.0556   6.9499
     8.8996   9.0337

     occupation numbers 
     1.0000   1.0000   1.0000   1.0000   1.0000   1.0000   1.0000   1.0000
     1.0000   1.0000   1.0000   1.0000   1.0000   1.0000   1.0000   1.0000
     1.0000   1.0000

          k = 0.3200 0.5543 0.2459 ( 14749 PWs)   bands (ev):

    -4.3138  -4.3081  -2.8414  -2.8135  -2.8089  -2.7602  -2.6712  -2.6706
    -2.6461  -2.6421  -0.8821  -0.8366   4.5105   4.5630   6.1207   6.8704
     8.9658   9.0796

     occupation numbers 
     1.0000   1.0000   1.0000   1.0000   1.0000   1.0000   1.0000   1.0000
     1.0000   1.0000   1.0000   1.0000   1.0000   1.0000   1.0000   1.0000
     1.0000   1.0000

          k = 0.3200 0.5543 0.2582 ( 14745 PWs)   bands (ev):

    -4.3117  -4.3071  -2.8334  -2.8151  -2.8111  -2.7673  -2.6716  -2.6716
    -2.6447  -2.6414  -0.8774  -0.8407   4.4949   4.5373   6.1883   6.7908
     9.0236   9.1160

     occupation numbers 
     1.0000   1.0000   1.0000   1.0000   1.0000   1.0000   1.0000   1.0000
     1.0000   1.0000   1.0000   1.0000   1.0000   1.0000   1.0000   1.0000
     1.0000   1.0000

          k = 0.3200 0.5543 0.2704 ( 14753 PWs)   bands (ev):

    -4.3099  -4.3064  -2.8256  -2.8163  -2.8126  -2.7749  -2.6722  -2.6720
    -2.6435  -2.6410  -0.8726  -0.8449   4.4839   4.5159   6.2580   6.7116
     9.0722   9.1424

     occupation numbers 
     1.0000   1.0000   1.0000   1.0000   1.0000   1.0000   1.0000   1.0000
     1.0000   1.0000   1.0000   1.0000   1.0000   1.0000   1.0000   1.0000
     1.0000   1.0000

          k = 0.3200 0.5543 0.2827 ( 14754 PWs)   bands (ev):

    -4.3084  -4.3061  -2.8193  -2.8171  -2.8121  -2.7827  -2.6726  -2.6724
    -2.6425  -2.6409  -0.8679  -0.8493   4.4775   4.4990   6.3298   6.6330
     9.1109   9.1581

     occupation numbers 
     1.0000   1.0000   1.0000   1.0000   1.0000   1.0000   1.0000   1.0000
     1.0000   1.0000   1.0000   1.0000   1.0000   1.0000   1.0000   1.0000
     1.0000   1.0000

          k = 0.3200 0.5543 0.2950 ( 14754 PWs)   bands (ev):

    -4.3073  -4.3061  -2.8175  -2.8175  -2.8065  -2.7907  -2.6728  -2.6726
    -2.6417  -2.6409  -0.8631  -0.8538   4.4759   4.4867   6.4034   6.5552
     9.1391   9.1629

     occupation numbers 
     1.0000   1.0000   1.0000   1.0000   1.0000   1.0000   1.0000   1.0000
     1.0000   1.0000   1.0000   1.0000   1.0000   1.0000   1.0000   1.0000
     1.0000   1.0000

          k = 0.3200 0.5543-0.3073 ( 14746 PWs)   bands (ev):

    -4.3065  -4.3065  -2.8175  -2.8175  -2.7988  -2.7988  -2.6728  -2.6728
    -2.6412  -2.6412  -0.8584  -0.8584   4.4789   4.4789   6.4786   6.4786
     9.1565   9.1565

     occupation numbers 
     1.0000   1.0000   1.0000   1.0000   1.0000   1.0000   1.0000   1.0000
     1.0000   1.0000   1.0000   1.0000   1.0000   1.0000   1.0000   1.0000
     1.0000   1.0000

          k = 0.3200 0.5774 0.0000 ( 14748 PWs)   bands (ev):

    -4.3554  -4.3461  -2.9339  -2.7368  -2.7274  -2.7177  -2.7039  -2.7007
    -2.6594  -2.6134  -0.8957  -0.8313   5.2287   5.3360   5.4046   7.5867
     7.7344   7.9224

     occupation numbers 
     1.0000   1.0000   1.0000   1.0000   1.0000   1.0000   1.0000   1.0000
     1.0000   1.0000   1.0000   1.0000   1.0000   1.0000   1.0000   1.0000
     1.0000   1.0000

          k = 0.3200 0.5774 0.0123 ( 14744 PWs)   bands (ev):

    -4.3552  -4.3460  -2.9336  -2.7376  -2.7285  -2.7177  -2.7031  -2.6998
    -2.6594  -2.6137  -0.8956  -0.8314   5.2251   5.3312   5.4053   7.5939
     7.7414   7.9188

     occupation numbers 
     1.0000   1.0000   1.0000   1.0000   1.0000   1.0000   1.0000   1.0000
     1.0000   1.0000   1.0000   1.0000   1.0000   1.0000   1.0000   1.0000
     1.0000   1.0000

          k = 0.3200 0.5774 0.0246 ( 14744 PWs)   bands (ev):

    -4.3547  -4.3455  -2.9329  -2.7399  -2.7313  -2.7178  -2.7011  -2.6973
    -2.6595  -2.6145  -0.8953  -0.8314   5.2141   5.3169   5.4079   7.6155
     7.7619   7.9082

     occupation numbers 
     1.0000   1.0000   1.0000   1.0000   1.0000   1.0000   1.0000   1.0000
     1.0000   1.0000   1.0000   1.0000   1.0000   1.0000   1.0000   1.0000
     1.0000   1.0000

          k = 0.3200 0.5774 0.0369 ( 14742 PWs)   bands (ev):

    -4.3538  -4.3447  -2.9316  -2.7433  -2.7352  -2.7179  -2.6981  -2.6940
    -2.6596  -2.6159  -0.8948  -0.8315   5.1954   5.2937   5.4134   7.6506
     7.7951   7.8909

     occupation numbers 
     1.0000   1.0000   1.0000   1.0000   1.0000   1.0000   1.0000   1.0000
     1.0000   1.0000   1.0000   1.0000   1.0000   1.0000   1.0000   1.0000
     1.0000   1.0000

          k = 0.3200 0.5774 0.0492 ( 14750 PWs)   bands (ev):

    -4.3526  -4.3436  -2.9298  -2.7473  -2.7397  -2.7180  -2.6947  -2.6902
    -2.6598  -2.6177  -0.8941  -0.8316   5.1690   5.2627   5.4228   7.6981
     7.8370   7.8699

     occupation numbers 
     1.0000   1.0000   1.0000   1.0000   1.0000   1.0000   1.0000   1.0000
     1.0000   1.0000   1.0000   1.0000   1.0000   1.0000   1.0000   1.0000
     1.0000   1.0000

          k = 0.3200 0.5774 0.0615 ( 14752 PWs)   bands (ev):

    -4.3510  -4.3422  -2.9275  -2.7518  -2.7445  -2.7183  -2.6910  -2.6863
    -2.6600  -2.6201  -0.8932  -0.8317   5.1355   5.2250   5.4365   7.7566
     7.8310   7.9008

     occupation numbers 
     1.0000   1.0000   1.0000   1.0000   1.0000   1.0000   1.0000   1.0000
     1.0000   1.0000   1.0000   1.0000   1.0000   1.0000   1.0000   1.0000
     1.0000   1.0000

          k = 0.3200 0.5774 0.0738 ( 14772 PWs)   bands (ev):

    -4.3491  -4.3405  -2.9247  -2.7565  -2.7496  -2.7186  -2.6873  -2.6824
    -2.6602  -2.6229  -0.8922  -0.8319   5.0963   5.1819   5.4547   7.7946
     7.8247   7.9649

     occupation numbers 
     1.0000   1.0000   1.0000   1.0000   1.0000   1.0000   1.0000   1.0000
     1.0000   1.0000   1.0000   1.0000   1.0000   1.0000   1.0000   1.0000
     1.0000   1.0000

          k = 0.3200 0.5774 0.0861 ( 14766 PWs)   bands (ev):

    -4.3470  -4.3387  -2.9214  -2.7613  -2.7547  -2.7190  -2.6835  -2.6785
    -2.6605  -2.6261  -0.8909  -0.8322   5.0526   5.1346   5.4773   7.7514
     7.9007   8.0375

     occupation numbers 
     1.0000   1.0000   1.0000   1.0000   1.0000   1.0000   1.0000   1.0000
     1.0000   1.0000   1.0000   1.0000   1.0000   1.0000   1.0000   1.0000
     1.0000   1.0000

          k = 0.3200 0.5774 0.0983 ( 14769 PWs)   bands (ev):

    -4.3446  -4.3366  -2.9176  -2.7661  -2.7599  -2.7196  -2.6799  -2.6747
    -2.6608  -2.6297  -0.8895  -0.8325   5.0058   5.0845   5.5040   7.7025
     7.9831   8.1164

     occupation numbers 
     1.0000   1.0000   1.0000   1.0000   1.0000   1.0000   1.0000   1.0000
     1.0000   1.0000   1.0000   1.0000   1.0000   1.0000   1.0000   1.0000
     1.0000   1.0000

          k = 0.3200 0.5774 0.1106 ( 14758 PWs)   bands (ev):

    -4.3421  -4.3343  -2.9134  -2.7710  -2.7651  -2.7204  -2.6764  -2.6711
    -2.6610  -2.6336  -0.8879  -0.8328   4.9571   5.0325   5.5348   7.6485
     8.0705   8.1999

     occupation numbers 
     1.0000   1.0000   1.0000   1.0000   1.0000   1.0000   1.0000   1.0000
     1.0000   1.0000   1.0000   1.0000   1.0000   1.0000   1.0000   1.0000
     1.0000   1.0000

          k = 0.3200 0.5774 0.1229 ( 14748 PWs)   bands (ev):

    -4.3393  -4.3319  -2.9087  -2.7758  -2.7702  -2.7215  -2.6733  -2.6677
    -2.6612  -2.6377  -0.8862  -0.8333   4.9077   4.9797   5.5694   7.5898
     8.1615   8.2866

     occupation numbers 
     1.0000   1.0000   1.0000   1.0000   1.0000   1.0000   1.0000   1.0000
     1.0000   1.0000   1.0000   1.0000   1.0000   1.0000   1.0000   1.0000
     1.0000   1.0000

          k = 0.3200 0.5774 0.1352 ( 14734 PWs)   bands (ev):

    -4.3364  -4.3293  -2.9036  -2.7804  -2.7752  -2.7229  -2.6705  -2.6645
    -2.6611  -2.6419  -0.8843  -0.8338   4.8586   4.9270   5.6077   7.5271
     8.2547   8.3751

     occupation numbers 
     1.0000   1.0000   1.0000   1.0000   1.0000   1.0000   1.0000   1.0000
     1.0000   1.0000   1.0000   1.0000   1.0000   1.0000   1.0000   1.0000
     1.0000   1.0000

          k = 0.3200 0.5774 0.1475 ( 14730 PWs)   bands (ev):

    -4.3334  -4.3267  -2.8980  -2.7850  -2.7800  -2.7246  -2.6684  -2.6615
    -2.6606  -2.6460  -0.8823  -0.8344   4.8104   4.8751   5.6496   7.4606
     8.3488   8.4641

     occupation numbers 
     1.0000   1.0000   1.0000   1.0000   1.0000   1.0000   1.0000   1.0000
     1.0000   1.0000   1.0000   1.0000   1.0000   1.0000   1.0000   1.0000
     1.0000   1.0000

          k = 0.3200 0.5774 0.1598 ( 14726 PWs)   bands (ev):

    -4.3304  -4.3241  -2.8921  -2.7893  -2.7847  -2.7268  -2.6673  -2.6593
    -2.6589  -2.6500  -0.8802  -0.8351   4.7639   4.8247   5.6949   7.3910
     8.4427   8.5523

     occupation numbers 
     1.0000   1.0000   1.0000   1.0000   1.0000   1.0000   1.0000   1.0000
     1.0000   1.0000   1.0000   1.0000   1.0000   1.0000   1.0000   1.0000
     1.0000   1.0000

          k = 0.3200 0.5774 0.1721 ( 14747 PWs)   bands (ev):

    -4.3274  -4.3216  -2.8858  -2.7934  -2.7892  -2.7296  -2.6670  -2.6575
    -2.6572  -2.6530  -0.8780  -0.8358   4.7197   4.7764   5.7435   7.3187
     8.5352   8.6386

     occupation numbers 
     1.0000   1.0000   1.0000   1.0000   1.0000   1.0000   1.0000   1.0000
     1.0000   1.0000   1.0000   1.0000   1.0000   1.0000   1.0000   1.0000
     1.0000   1.0000

          k = 0.3200 0.5774 0.1844 ( 14749 PWs)   bands (ev):

    -4.3244  -4.3191  -2.8791  -2.7973  -2.7934  -2.7330  -2.6671  -2.6587
    -2.6554  -2.6527  -0.8757  -0.8367   4.6782   4.7306   5.7954   7.2441
     8.6251   8.7218

     occupation numbers 
     1.0000   1.0000   1.0000   1.0000   1.0000   1.0000   1.0000   1.0000
     1.0000   1.0000   1.0000   1.0000   1.0000   1.0000   1.0000   1.0000
     1.0000   1.0000

          k = 0.3200 0.5774 0.1967 ( 14746 PWs)   bands (ev):

    -4.3216  -4.3167  -2.8721  -2.8009  -2.7974  -2.7371  -2.6675  -2.6616
    -2.6533  -2.6509  -0.8734  -0.8378   4.6400   4.6878   5.8503   7.1677
     8.7113   8.8007

     occupation numbers 
     1.0000   1.0000   1.0000   1.0000   1.0000   1.0000   1.0000   1.0000
     1.0000   1.0000   1.0000   1.0000   1.0000   1.0000   1.0000   1.0000
     1.0000   1.0000

          k = 0.3200 0.5774 0.2090 ( 14742 PWs)   bands (ev):

    -4.3188  -4.3144  -2.8648  -2.8041  -2.8010  -2.7420  -2.6680  -2.6642
    -2.6513  -2.6491  -0.8710  -0.8389   4.6052   4.6483   5.9081   7.0898
     8.7928   8.8743

     occupation numbers 
     1.0000   1.0000   1.0000   1.0000   1.0000   1.0000   1.0000   1.0000
     1.0000   1.0000   1.0000   1.0000   1.0000   1.0000   1.0000   1.0000
     1.0000   1.0000

          k = 0.3200 0.5774 0.2213 ( 14749 PWs)   bands (ev):

    -4.3162  -4.3124  -2.8572  -2.8071  -2.8043  -2.7475  -2.6685  -2.6664
    -2.6495  -2.6475  -0.8686  -0.8401   4.5743   4.6125   5.9687   7.0109
     8.8684   8.9414

     occupation numbers 
     1.0000   1.0000   1.0000   1.0000   1.0000   1.0000   1.0000   1.0000
     1.0000   1.0000   1.0000   1.0000   1.0000   1.0000   1.0000   1.0000
     1.0000   1.0000

          k = 0.3200 0.5774 0.2336 ( 14753 PWs)   bands (ev):

    -4.3139  -4.3105  -2.8494  -2.8096  -2.8073  -2.7536  -2.6690  -2.6682
    -2.6478  -2.6461  -0.8662  -0.8415   4.5475   4.5805   6.0320   6.9313
     8.9372   9.0011

     occupation numbers 
     1.0000   1.0000   1.0000   1.0000   1.0000   1.0000   1.0000   1.0000
     1.0000   1.0000   1.0000   1.0000   1.0000   1.0000   1.0000   1.0000
     1.0000   1.0000

          k = 0.3200 0.5774 0.2459 ( 14738 PWs)   bands (ev):

    -4.3118  -4.3090  -2.8414  -2.8118  -2.8099  -2.7603  -2.6696  -2.6695
    -2.6464  -2.6449  -0.8637  -0.8430   4.5249   4.5527   6.0977   6.8515
     8.9982   9.0525

     occupation numbers 
     1.0000   1.0000   1.0000   1.0000   1.0000   1.0000   1.0000   1.0000
     1.0000   1.0000   1.0000   1.0000   1.0000   1.0000   1.0000   1.0000
     1.0000   1.0000

          k = 0.3200 0.5774 0.2582 ( 14738 PWs)   bands (ev):

    -4.3100  -4.3077  -2.8333  -2.8135  -2.8121  -2.7675  -2.6705  -2.6701
    -2.6452  -2.6440  -0.8614  -0.8446   4.5068   4.5292   6.1658   6.7716
     9.0506   9.0947

     occupation numbers 
     1.0000   1.0000   1.0000   1.0000   1.0000   1.0000   1.0000   1.0000
     1.0000   1.0000   1.0000   1.0000   1.0000   1.0000   1.0000   1.0000
     1.0000   1.0000

          k = 0.3200 0.5774 0.2704 ( 14758 PWs)   bands (ev):

    -4.3085  -4.3068  -2.8251  -2.8147  -2.8138  -2.7751  -2.6711  -2.6706
    -2.6442  -2.6433  -0.8590  -0.8464   4.4932   4.5101   6.2361   6.6920
     9.0935   9.1269

     occupation numbers 
     1.0000   1.0000   1.0000   1.0000   1.0000   1.0000   1.0000   1.0000
     1.0000   1.0000   1.0000   1.0000   1.0000   1.0000   1.0000   1.0000
     1.0000   1.0000

          k = 0.3200 0.5774 0.2827 ( 14760 PWs)   bands (ev):

    -4.3073  -4.3062  -2.8180  -2.8152  -2.8144  -2.7830  -2.6715  -2.6710
    -2.6435  -2.6428  -0.8567  -0.8483   4.4842   4.4955   6.3083   6.6131
     9.1262   9.1488

     occupation numbers 
     1.0000   1.0000   1.0000   1.0000   1.0000   1.0000   1.0000   1.0000
     1.0000   1.0000   1.0000   1.0000   1.0000   1.0000   1.0000   1.0000
     1.0000   1.0000

          k = 0.3200 0.5774 0.2950 ( 14762 PWs)   bands (ev):

    -4.3065  -4.3059  -2.8167  -2.8161  -2.8076  -2.7912  -2.6716  -2.6713
    -2.6429  -2.6426  -0.8544  -0.8502   4.4800   4.4856   6.3824   6.5350
     9.1484   9.1597

     occupation numbers 
     1.0000   1.0000   1.0000   1.0000   1.0000   1.0000   1.0000   1.0000
     1.0000   1.0000   1.0000   1.0000   1.0000   1.0000   1.0000   1.0000
     1.0000   1.0000

          k = 0.3200 0.5774-0.3073 ( 14770 PWs)   bands (ev):

    -4.3060  -4.3060  -2.8166  -2.8166  -2.7994  -2.7994  -2.6715  -2.6715
    -2.6427  -2.6427  -0.8523  -0.8523   4.4804   4.4804   6.4580   6.4580
     9.1596   9.1596

     occupation numbers 
     1.0000   1.0000   1.0000   1.0000   1.0000   1.0000   1.0000   1.0000
     1.0000   1.0000   1.0000   1.0000   1.0000   1.0000   1.0000   1.0000
     1.0000   1.0000

     highest occupied level (ev):    10.6184

!    total energy              =    -347.51875586 Ry
     estimated scf accuracy    <       0.00000033 Ry

     The total energy is the sum of the following terms:
     one-electron contribution =    -105.66883412 Ry
     hartree contribution      =      87.58429214 Ry
     xc contribution           =     -96.27738697 Ry
     ewald contribution        =    -233.15682690 Ry

     convergence has been achieved in  18 iterations

     Writing output data file ../tmp/GaN_exc1.save/
 
     init_run     :    118.89s CPU    121.39s WALL (       1 calls)
     electrons    :   4553.48s CPU   4610.06s WALL (       1 calls)

     Called by init_run:
     wfcinit      :    116.98s CPU    119.40s WALL (       1 calls)
     wfcinit:atom :      3.01s CPU      3.03s WALL (    6084 calls)
     wfcinit:wfcr :     96.69s CPU     97.84s WALL (    6084 calls)
     potinit      :      0.16s CPU      0.16s WALL (       1 calls)
     hinit0       :      0.30s CPU      0.34s WALL (       1 calls)

     Called by electrons:
     c_bands      :   3929.33s CPU   3974.12s WALL (      18 calls)
     sum_band     :    623.60s CPU    635.27s WALL (      18 calls)
     v_of_rho     :      0.39s CPU      0.44s WALL (      19 calls)
     v_h          :      0.01s CPU      0.02s WALL (      19 calls)
     v_xc         :      0.38s CPU      0.42s WALL (      19 calls)
     mix_rho      :      0.10s CPU      0.13s WALL (      18 calls)

     Called by c_bands:
     init_us_2    :    181.48s CPU    188.26s WALL (  225108 calls)
     cegterg      :   3322.28s CPU   3359.89s WALL (  109512 calls)

     Called by sum_band:
     sum_band:wei :      0.01s CPU      0.01s WALL (      18 calls)
     sum_band:loo :    623.52s CPU    635.18s WALL (      18 calls)
     sum_band:buf :     20.56s CPU     22.09s WALL (  109512 calls)
     sum_band:ini :     89.06s CPU     93.15s WALL (  109512 calls)

     Called by *egterg:
     cdiaghg      :    232.24s CPU    234.02s WALL (  331188 calls)
     cegterg:over :    174.33s CPU    175.43s WALL (  221676 calls)
     cegterg:upda :     92.18s CPU     93.08s WALL (  221676 calls)
     cegterg:last :    149.07s CPU    150.09s WALL (  186043 calls)
     cdiaghg:chol :     26.34s CPU     26.60s WALL (  331188 calls)
     cdiaghg:inve :      5.51s CPU      5.60s WALL (  331188 calls)
     cdiaghg:para :     27.69s CPU     27.72s WALL (  662376 calls)
     h_psi        :   2636.78s CPU   2670.89s WALL (  337272 calls)
     g_psi        :     21.17s CPU     21.37s WALL (  221676 calls)

     Called by h_psi:
     h_psi:calbec :    170.90s CPU    173.03s WALL (  337272 calls)
     vloc_psi     :   2224.75s CPU   2255.28s WALL (  337272 calls)
     add_vuspsi   :    206.98s CPU    208.51s WALL (  337272 calls)

     General routines
     calbec       :    169.85s CPU    172.25s WALL (  337272 calls)
     fft          :      0.12s CPU      0.16s WALL (     190 calls)
     ffts         :      0.01s CPU      0.01s WALL (      18 calls)
     fftw         :   2106.46s CPU   2133.27s WALL (11580590 calls)
 
     Parallel routines
 
     PWSCF        :      1h18m CPU      1h19m WALL

 
   This run was terminated on:  23: 2:27  27Mar2023            

=------------------------------------------------------------------------------=
   JOB DONE.
=------------------------------------------------------------------------------=
