calculator: qe
length_unit: au
nqpoint: 357    
npath: 7      
segment_nqpoint:
- 51
- 51
- 51
- 51
- 51
- 51
- 51
labels:
- [ '$\Gamma$', 'M' ]
- [ 'M', 'K' ]
- [ 'K', '$\Gamma$' ]
- [ '$\Gamma$', 'A' ]
- [ 'A', 'L' ]
- [ 'L', 'H' ]
- [ 'H', 'A' ]
reciprocal_lattice:
- [   0.16438123,   0.09490554,   0.00000000 ] # a*
- [   0.00000000,   0.18981109,   0.00000000 ] # b*
- [   0.00000000,   0.00000000,   0.10091172 ] # c*
natom: 4      
lattice:
- [     6.083419775700261,     0.000000000000000,     0.000000000000000 ] # a
- [    -3.041709887850131,     5.268396068308857,     0.000000000000000 ] # b
- [     0.000000000000000,     0.000000000000000,     9.909651624673433 ] # c
points:
- symbol: Ga # 1
  coordinates: [  0.666666666700000,  0.333333333300000,  0.499121070200000 ]
  mass: 69.723000
- symbol: Ga # 2
  coordinates: [  0.333333333300000,  0.666666666700000,  0.999121070200000 ]
  mass: 69.723000
- symbol: N  # 3
  coordinates: [  0.666666666700000,  0.333333333300000,  0.875878929800000 ]
  mass: 14.006700
- symbol: N  # 4
  coordinates: [  0.333333333300000,  0.666666666700000,  0.375878929800000 ]
  mass: 14.006700

phonon:
- q-position: [    0.0000000,    0.0000000,    0.0000000 ]
  distance:    0.0000000
  band:
  - # 1
    frequency:   -0.0053867521
    eigenvector:
    - # atom 1
      - [  0.00000000014525,  0.00000000000000 ]
      - [ -0.00000000146421,  0.00000000000000 ]
      - [  0.64536118364318,  0.00000000000000 ]
    - # atom 2
      - [  0.00000000014525,  0.00000000000000 ]
      - [ -0.00000000146420,  0.00000000000000 ]
      - [  0.64536118364318,  0.00000000000000 ]
    - # atom 3
      - [  0.00000000006511,  0.00000000000000 ]
      - [ -0.00000000065631,  0.00000000000000 ]
      - [  0.28897913877419,  0.00000000000000 ]
    - # atom 4
      - [  0.00000000006511,  0.00000000000000 ]
      - [ -0.00000000065631,  0.00000000000000 ]
      - [  0.28897913877419,  0.00000000000000 ]
  - # 2
    frequency:   -0.0023602512
    eigenvector:
    - # atom 1
      - [  0.60415440962624,  0.00000000000000 ]
      - [  0.22659639675472,  0.00000000000000 ]
      - [  0.00000000037826,  0.00000000000000 ]
    - # atom 2
      - [  0.60415440958123,  0.00000000000000 ]
      - [  0.22659639680944,  0.00000000000000 ]
      - [  0.00000000037826,  0.00000000000000 ]
    - # atom 3
      - [  0.27080481598416,  0.00000000000000 ]
      - [  0.10156906007489,  0.00000000000000 ]
      - [  0.00000000016938,  0.00000000000000 ]
    - # atom 4
      - [  0.27080481596399,  0.00000000000000 ]
      - [  0.10156906009941,  0.00000000000000 ]
      - [  0.00000000016938,  0.00000000000000 ]
  - # 3
    frequency:   -0.0023602512
    eigenvector:
    - # atom 1
      - [  0.22659639680944, -0.00000000000000 ]
      - [ -0.60415440958123,  0.00000000000000 ]
      - [ -0.00000000142220,  0.00000000000000 ]
    - # atom 2
      - [  0.22659639675472,  0.00000000000000 ]
      - [ -0.60415440962624,  0.00000000000000 ]
      - [ -0.00000000142220,  0.00000000000000 ]
    - # atom 3
      - [  0.10156906009941,  0.00000000000000 ]
      - [ -0.27080481596399,  0.00000000000000 ]
      - [ -0.00000000063683,  0.00000000000000 ]
    - # atom 4
      - [  0.10156906007489,  0.00000000000000 ]
      - [ -0.27080481598416,  0.00000000000000 ]
      - [ -0.00000000063683,  0.00000000000000 ]
  - # 4
    frequency:    4.0854949795
    eigenvector:
    - # atom 1
      - [ -0.17216238401583,  0.00000000000000 ]
      - [ -0.64251980652446,  0.00000000000000 ]
      - [ -0.00000000000000,  0.00000000000000 ]
    - # atom 2
      - [  0.17216238400916,  0.00000000000000 ]
      - [  0.64251980649957,  0.00000000000000 ]
      - [ -0.00000000000000,  0.00000000000000 ]
    - # atom 3
      - [  0.06207786403513,  0.00000000000000 ]
      - [  0.23167811840731,  0.00000000000000 ]
      - [ -0.00000000000000,  0.00000000000000 ]
    - # atom 4
      - [ -0.06207786405561,  0.00000000000000 ]
      - [ -0.23167811848375,  0.00000000000000 ]
      - [ -0.00000000000000,  0.00000000000000 ]
  - # 5
    frequency:    4.0854949800
    eigenvector:
    - # atom 1
      - [ -0.64251980649957,  0.00000000000000 ]
      - [  0.17216238400916,  0.00000000000000 ]
      - [ -0.00000000000000,  0.00000000000000 ]
    - # atom 2
      - [  0.64251980652446,  0.00000000000000 ]
      - [ -0.17216238401583,  0.00000000000000 ]
      - [  0.00000000000000,  0.00000000000000 ]
    - # atom 3
      - [  0.23167811848375,  0.00000000000000 ]
      - [ -0.06207786405561,  0.00000000000000 ]
      - [ -0.00000000000000,  0.00000000000000 ]
    - # atom 4
      - [ -0.23167811840731,  0.00000000000000 ]
      - [  0.06207786403513,  0.00000000000000 ]
      - [ -0.00000000000000,  0.00000000000000 ]
  - # 6
    frequency:    9.5596858901
    eigenvector:
    - # atom 1
      - [ -0.00000000000000,  0.00000000000000 ]
      - [ -0.00000000000000,  0.00000000000000 ]
      - [  0.70643048997537,  0.00000000000000 ]
    - # atom 2
      - [  0.00000000000000,  0.00000000000000 ]
      - [ -0.00000000000000,  0.00000000000000 ]
      - [ -0.70643048997537,  0.00000000000000 ]
    - # atom 3
      - [ -0.00000000000000,  0.00000000000000 ]
      - [ -0.00000000000000,  0.00000000000000 ]
      - [  0.03091864863090,  0.00000000000000 ]
    - # atom 4
      - [ -0.00000000000000,  0.00000000000000 ]
      - [  0.00000000000000,  0.00000000000000 ]
      - [ -0.03091864863090,  0.00000000000000 ]
  - # 7
    frequency:   15.0640341939
    eigenvector:
    - # atom 1
      - [  0.00000000000000,  0.00000000000000 ]
      - [ -0.00000000000000,  0.00000000000000 ]
      - [  0.28897913877419,  0.00000000000000 ]
    - # atom 2
      - [  0.00000000000000,  0.00000000000000 ]
      - [ -0.00000000000000,  0.00000000000000 ]
      - [  0.28897913877419,  0.00000000000000 ]
    - # atom 3
      - [ -0.00000000000000,  0.00000000000000 ]
      - [  0.00000000000000,  0.00000000000000 ]
      - [ -0.64536118364318,  0.00000000000000 ]
    - # atom 4
      - [ -0.00000000000000,  0.00000000000000 ]
      - [  0.00000000000000,  0.00000000000000 ]
      - [ -0.64536118364318,  0.00000000000000 ]
  - # 8
    frequency:   15.7411919670
    eigenvector:
    - # atom 1
      - [ -0.07485712710052,  0.00000000000000 ]
      - [ -0.27937060202510,  0.00000000000000 ]
      - [ -0.00000000000000,  0.00000000000000 ]
    - # atom 2
      - [ -0.07485712671405,  0.00000000000000 ]
      - [ -0.27937060058279,  0.00000000000000 ]
      - [ -0.00000000000000,  0.00000000000000 ]
    - # atom 3
      - [  0.16700317167504,  0.00000000000000 ]
      - [  0.62326432255826,  0.00000000000000 ]
      - [  0.00000000000000,  0.00000000000000 ]
    - # atom 4
      - [  0.16700317269979,  0.00000000000000 ]
      - [  0.62326432638263,  0.00000000000000 ]
      - [  0.00000000000000,  0.00000000000000 ]
  - # 9
    frequency:   15.7411919687
    eigenvector:
    - # atom 1
      - [ -0.27937060058278,  0.00000000000000 ]
      - [  0.07485712671405,  0.00000000000000 ]
      - [  0.00000000000000,  0.00000000000000 ]
    - # atom 2
      - [ -0.27937060202510,  0.00000000000000 ]
      - [  0.07485712710052,  0.00000000000000 ]
      - [  0.00000000000000,  0.00000000000000 ]
    - # atom 3
      - [  0.62326432638264,  0.00000000000000 ]
      - [ -0.16700317269979,  0.00000000000000 ]
      - [ -0.00000000000000,  0.00000000000000 ]
    - # atom 4
      - [  0.62326432255825,  0.00000000000000 ]
      - [ -0.16700317167504,  0.00000000000000 ]
      - [ -0.00000000000000,  0.00000000000000 ]
  - # 10
    frequency:   15.9504164387
    eigenvector:
    - # atom 1
      - [ -0.06207808614658,  0.00000000000000 ]
      - [ -0.23167805806330,  0.00000000000000 ]
      - [ -0.00000000000000,  0.00000000000000 ]
    - # atom 2
      - [  0.06207808658177,  0.00000000000000 ]
      - [  0.23167805968744,  0.00000000000000 ]
      - [ -0.00000000000000,  0.00000000000000 ]
    - # atom 3
      - [ -0.17216300107834,  0.00000000000000 ]
      - [ -0.64251964317965,  0.00000000000000 ]
      - [  0.00000000000000,  0.00000000000000 ]
    - # atom 4
      - [  0.17216300007335,  0.00000000000000 ]
      - [  0.64251963942898,  0.00000000000000 ]
      - [  0.00000000000000,  0.00000000000000 ]
  - # 11
    frequency:   15.9504164404
    eigenvector:
    - # atom 1
      - [  0.23167805968744,  0.00000000000000 ]
      - [ -0.06207808658177,  0.00000000000000 ]
      - [  0.00000000000000,  0.00000000000000 ]
    - # atom 2
      - [ -0.23167805806329,  0.00000000000000 ]
      - [  0.06207808614658,  0.00000000000000 ]
      - [ -0.00000000000000,  0.00000000000000 ]
    - # atom 3
      - [  0.64251963942898,  0.00000000000000 ]
      - [ -0.17216300007335,  0.00000000000000 ]
      - [  0.00000000000000,  0.00000000000000 ]
    - # atom 4
      - [ -0.64251964317965,  0.00000000000000 ]
      - [  0.17216300107834,  0.00000000000000 ]
      - [ -0.00000000000000,  0.00000000000000 ]
  - # 12
    frequency:   19.7012267586
    eigenvector:
    - # atom 1
      - [  0.00000000000000,  0.00000000000000 ]
      - [  0.00000000000000,  0.00000000000000 ]
      - [  0.03091864863090,  0.00000000000000 ]
    - # atom 2
      - [  0.00000000000000,  0.00000000000000 ]
      - [  0.00000000000000,  0.00000000000000 ]
      - [ -0.03091864863090,  0.00000000000000 ]
    - # atom 3
      - [  0.00000000000000,  0.00000000000000 ]
      - [ -0.00000000000000,  0.00000000000000 ]
      - [ -0.70643048997537,  0.00000000000000 ]
    - # atom 4
      - [ -0.00000000000000,  0.00000000000000 ]
      - [  0.00000000000000,  0.00000000000000 ]
      - [  0.70643048997537,  0.00000000000000 ]

- q-position: [    0.0100000,    0.0000000,    0.0000000 ]
  distance:    0.0018981
  band:
  - # 1
    frequency:   -0.2107348766
    eigenvector:
    - # atom 1
      - [  0.33132350457472,  0.00000000000000 ]
      - [  0.19128971450486, -0.00000000175615 ]
      - [  0.00169514236943,  0.51975710951783 ]
    - # atom 2
      - [  0.33131625235438, -0.00219216489991 ]
      - [  0.19128552750054, -0.00126564875184 ]
      - [  0.00174381188656,  0.51975694850774 ]
    - # atom 3
      - [  0.14607612637692,  0.00149276863645 ]
      - [  0.08433709085841,  0.00086184958676 ]
      - [  0.00076716334993,  0.23458072121284 ]
    - # atom 4
      - [  0.14606305222157, -0.00245923229764 ]
      - [  0.08432954253096, -0.00141983921721 ]
      - [  0.00078493161654,  0.23458066243128 ]
  - # 2
    frequency:    0.1275447683
    eigenvector:
    - # atom 1
      - [ -0.32263543816771,  0.00000000000000 ]
      - [  0.55882097122746, -0.00000000009707 ]
      - [  0.00000000185450, -0.00000000000759 ]
    - # atom 2
      - [ -0.32262763525611, -0.00224385629934 ]
      - [  0.55880745633062,  0.00388647301926 ]
      - [  0.00000000185450, -0.00000000000712 ]
    - # atom 3
      - [ -0.14458331788972,  0.00142766474216 ]
      - [  0.25042565251218, -0.00247278789230 ]
      - [  0.00000000083032, -0.00000000000312 ]
    - # atom 4
      - [ -0.14456989207067, -0.00243317438089 ]
      - [  0.25040239837373,  0.00421438162975 ]
      - [  0.00000000083032, -0.00000000000347 ]
  - # 3
    frequency:    0.3693260038
    eigenvector:
    - # atom 1
      - [ -0.45005081077916,  0.00000000000000 ]
      - [ -0.25983695668801, -0.00000000122585 ]
      - [  0.00139843751711,  0.38260232851015 ]
    - # atom 2
      - [ -0.45003934786186,  0.00321210858724 ]
      - [ -0.25983033862321,  0.00185451053261 ]
      - [  0.00133231158872,  0.38260256449050 ]
    - # atom 3
      - [ -0.20331008437680, -0.00196993819540 ]
      - [ -0.11738113191880, -0.00113734489634 ]
      - [  0.00061417189719,  0.16862281663639 ]
    - # atom 4
      - [ -0.20329084615229,  0.00342095543393 ]
      - [ -0.11737002474150,  0.00197508899308 ]
      - [  0.00058934034106,  0.16862290525154 ]
  - # 4
    frequency:    4.0875111646
    eigenvector:
    - # atom 1
      - [  0.33260428944385,  0.00000000000000 ]
      - [ -0.57608756481882, -0.00000000420307 ]
      - [ -0.00000000001886,  0.00000000014743 ]
    - # atom 2
      - [ -0.33259668559061, -0.00224901987574 ]
      - [  0.57607439453343,  0.00389542064737 ]
      - [  0.00000000001482, -0.00000000015457 ]
    - # atom 3
      - [ -0.11988791359625,  0.00112378373721 ]
      - [  0.20765197067456, -0.00194644889216 ]
      - [ -0.00000000000621,  0.00000000004187 ]
    - # atom 4
      - [  0.11987757381571,  0.00193442197596 ]
      - [ -0.20763406184553, -0.00335051844842 ]
      - [  0.00000000000351, -0.00000000004538 ]
  - # 5
    frequency:    4.0956544823
    eigenvector:
    - # atom 1
      - [  0.57611043630294,  0.00000000000000 ]
      - [  0.33261749433251,  0.00000000242724 ]
      - [  0.00005508616867, -0.00549397918016 ]
    - # atom 2
      - [ -0.57609726777979,  0.00389524123131 ]
      - [ -0.33260989143611,  0.00224891628954 ]
      - [  0.00009223119609,  0.00549348114809 ]
    - # atom 3
      - [ -0.20752942869695, -0.00194539227492 ]
      - [ -0.11981716385642, -0.00112317370027 ]
      - [  0.00004378587567, -0.00158628109893 ]
    - # atom 4
      - [  0.20751153170104, -0.00334851139659 ]
      - [  0.11980683109087, -0.00193326320560 ]
      - [  0.00005451015251,  0.00158594879205 ]
  - # 6
    frequency:    9.5581163098
    eigenvector:
    - # atom 1
      - [ -0.00580099074890,  0.00000000000000 ]
      - [ -0.00334920357103,  0.00000000000002 ]
      - [ -0.00659943643171, -0.70636399194391 ]
    - # atom 2
      - [  0.00579997835603, -0.00010837318463 ]
      - [  0.00334861906399, -0.00006256928731 ]
      - [  0.00659789482729,  0.70636400634517 ]
    - # atom 3
      - [ -0.00190120027364, -0.00001997215687 ]
      - [ -0.00109765849028, -0.00001153093013 ]
      - [ -0.00028865444559, -0.03092873091057 ]
    - # atom 4
      - [  0.00190049535779, -0.00005548659182 ]
      - [  0.00109725150734, -0.00003203519873 ]
      - [  0.00028920155219,  0.03092872579965 ]
  - # 7
    frequency:   15.0648316386
    eigenvector:
    - # atom 1
      - [  0.00663365949179,  0.00000000000000 ]
      - [  0.00382994510431, -0.00000000000037 ]
      - [  0.00005070795349,  0.28879668646116 ]
    - # atom 2
      - [  0.00663365908383, -0.00000233650646 ]
      - [  0.00382994486065, -0.00000134898281 ]
      - [  0.00005101198147,  0.28879668640762 ]
    - # atom 3
      - [ -0.00849138735668, -0.00020358687109 ]
      - [ -0.00490250478260, -0.00011754093442 ]
      - [ -0.00011546922270, -0.64532285763871 ]
    - # atom 4
      - [ -0.00849131511435,  0.00020657769350 ]
      - [ -0.00490246309258,  0.00011926768730 ]
      - [ -0.00011182631850, -0.64532285828026 ]
  - # 8
    frequency:   15.7412270303
    eigenvector:
    - # atom 1
      - [ -0.14455044910359,  0.00000000000000 ]
      - [  0.25036886685565,  0.00000000224499 ]
      - [  0.00000000004682, -0.00000000193327 ]
    - # atom 2
      - [ -0.14423524864746,  0.00954075158131 ]
      - [  0.24982292026428, -0.01652505504158 ]
      - [  0.00000000013638, -0.00000000190276 ]
    - # atom 3
      - [  0.32131717774827, -0.02933145396322 ]
      - [ -0.55653799158834,  0.05080353515729 ]
      - [ -0.00000000015603,  0.00000000242373 ]
    - # atom 4
      - [  0.32255247874657,  0.00805962340943 ]
      - [ -0.55867760523681, -0.01395967425013 ]
      - [ -0.00000000007658,  0.00000000244668 ]
  - # 9
    frequency:   15.7447012879
    eigenvector:
    - # atom 1
      - [  0.25019978310694,  0.00000000000000 ]
      - [  0.14445283022156,  0.00000000117941 ]
      - [  0.00007020269944, -0.00771903986374 ]
    - # atom 2
      - [  0.24964568778191,  0.01664218192287 ]
      - [  0.14413292166412,  0.00960837504941 ]
      - [  0.00044338931139, -0.00770661474031 ]
    - # atom 3
      - [ -0.55647988405032, -0.05112667740605 ]
      - [ -0.32128362481574, -0.02951802091714 ]
      - [ -0.00049011168408,  0.00976422199113 ]
    - # atom 4
      - [ -0.55864821625136,  0.01399887335753 ]
      - [ -0.32253551556694,  0.00808225529630 ]
      - [ -0.00016044677191,  0.00977519807412 ]
  - # 10
    frequency:   15.9520951338
    eigenvector:
    - # atom 1
      - [  0.11994115054302,  0.00000000000000 ]
      - [ -0.20774435982521,  0.00000000430067 ]
      - [  0.00000000007636,  0.00000000168718 ]
    - # atom 2
      - [ -0.11936921758508,  0.01169912139553 ]
      - [  0.20675374574053, -0.02026345742281 ]
      - [  0.00000000017212, -0.00000000171894 ]
    - # atom 3
      - [  0.33077940319627, -0.03462560628785 ]
      - [ -0.57292727534385,  0.05997326358153 ]
      - [ -0.00000000017317,  0.00000000137124 ]
    - # atom 4
      - [ -0.33257949862104, -0.00219610312961 ]
      - [  0.57604512592748,  0.00380374689609 ]
      - [ -0.00000000009687, -0.00000000133586 ]
  - # 11
    frequency:   15.9542421021
    eigenvector:
    - # atom 1
      - [ -0.20759130324206,  0.00000000000000 ]
      - [ -0.11985278126264,  0.00000000235057 ]
      - [  0.00009364734878,  0.00419901645532 ]
    - # atom 2
      - [  0.20658562124030,  0.02040905768513 ]
      - [  0.11927215269502,  0.01178318338936 ]
      - [  0.00050601443611, -0.00416946740105 ]
    - # atom 3
      - [ -0.57292197355732, -0.06037214357599 ]
      - [ -0.33077634664267, -0.03485589883431 ]
      - [ -0.00048928322281,  0.00331255915841 ]
    - # atom 4
      - [  0.57608185065046, -0.00375362149052 ]
      - [  0.33260069718479, -0.00216716304413 ]
      - [ -0.00016124299385, -0.00334461461861 ]
  - # 12
    frequency:   19.7003218838
    eigenvector:
    - # atom 1
      - [ -0.00201974949103,  0.00000000000000 ]
      - [ -0.00116610291174, -0.00000000000001 ]
      - [  0.00037215537271,  0.03095886747863 ]
    - # atom 2
      - [  0.00201916597772, -0.00004854647555 ]
      - [  0.00116576602055, -0.00002802832072 ]
      - [ -0.00037207606158, -0.03095886843192 ]
    - # atom 3
      - [ -0.00217199934875,  0.00000711141790 ]
      - [ -0.00125400440819,  0.00000410577903 ]
      - [ -0.00849138758629, -0.70636929222753 ]
    - # atom 4
      - [  0.00217154277964, -0.00004509657292 ]
      - [  0.00125374080713, -0.00002603651850 ]
      - [  0.00848927984882,  0.70636931756186 ]

- q-position: [    0.0200000,    0.0000000,    0.0000000 ]
  distance:    0.0037962
  band:
  - # 1
    frequency:   -0.1427711412
    eigenvector:
    - # atom 1
      - [  0.27243409768882,  0.00000000000000 ]
      - [  0.15728989959412, -0.00000000201353 ]
      - [  0.00335978136191,  0.56367611004318 ]
    - # atom 2
      - [  0.27241380753757, -0.00332490920414 ]
      - [  0.15727818515201, -0.00191963923845 ]
      - [  0.00351983119740,  0.56367513334593 ]
    - # atom 3
      - [  0.11672781118204,  0.00251244971665 ]
      - [  0.06739283317707,  0.00145056261788 ]
      - [  0.00152897320139,  0.25518537296723 ]
    - # atom 4
      - [  0.11668845451057, -0.00393686167426 ]
      - [  0.06737011065134, -0.00227294905080 ]
      - [  0.00158554025606,  0.25518502776920 ]
  - # 2
    frequency:    0.2549898832
    eigenvector:
    - # atom 1
      - [ -0.32266564700043,  0.00000000000000 ]
      - [  0.55887329445825, -0.00000000020639 ]
      - [  0.00000000194187, -0.00000000001574 ]
    - # atom 2
      - [ -0.32263415646897, -0.00450785914895 ]
      - [  0.55881875140258,  0.00780784087496 ]
      - [  0.00000000194186, -0.00000000001485 ]
    - # atom 3
      - [ -0.14449490219040,  0.00284666250622 ]
      - [  0.25027251203036, -0.00493056414174 ]
      - [  0.00000000086917, -0.00000000000649 ]
    - # atom 4
      - [ -0.14444103040838, -0.00486507697898 ]
      - [  0.25017920342524,  0.00842656046353 ]
      - [  0.00000000086917, -0.00000000000720 ]
  - # 3
    frequency:    0.6229483258
    eigenvector:
    - # atom 1
      - [ -0.48813845751604,  0.00000000000000 ]
      - [ -0.28182686977907, -0.00000000099214 ]
      - [  0.00242618047776,  0.31452509910446 ]
    - # atom 2
      - [ -0.48808704233166,  0.00708468755417 ]
      - [ -0.28179718526152,  0.00409034527651 ]
      - [  0.00213899256571,  0.31452718329134 ]
    - # atom 3
      - [ -0.22102532938712, -0.00423181070823 ]
      - [ -0.12760903339476, -0.00244323749495 ]
      - [  0.00103318964573,  0.13491230744160 ]
    - # atom 4
      - [ -0.22094062983584,  0.00743925686224 ]
      - [ -0.12756013209697,  0.00429505651158 ]
      - [  0.00092499360452,  0.13491309264446 ]
  - # 4
    frequency:    4.0935427504
    eigenvector:
    - # atom 1
      - [  0.33263907323114,  0.00000000000000 ]
      - [ -0.57614778469138, -0.00000000210465 ]
      - [ -0.00000000001889,  0.00000000006864 ]
    - # atom 2
      - [ -0.33260836963141, -0.00451945705345 ]
      - [  0.57609460446768,  0.00782793121857 ]
      - [  0.00000000001491, -0.00000000008288 ]
    - # atom 3
      - [ -0.11977573269754,  0.00224004743273 ]
      - [  0.20745765777201, -0.00387987514775 ]
      - [ -0.00000000000620,  0.00000000001840 ]
    - # atom 4
      - [  0.11973424214786,  0.00386719392843 ]
      - [ -0.20738579422941, -0.00669817701910 ]
      - [  0.00000000000354, -0.00000000002542 ]
  - # 5
    frequency:    4.1259081558
    eigenvector:
    - # atom 1
      - [  0.57623831257077,  0.00000000000000 ]
      - [  0.33269133955947,  0.00000000121628 ]
      - [  0.00021613556679, -0.01101779823657 ]
    - # atom 2
      - [ -0.57618516394397,  0.00782622235005 ]
      - [ -0.33266065413838,  0.00451847043716 ]
      - [  0.00036575463706,  0.01101384656287 ]
    - # atom 3
      - [ -0.20696796765064, -0.00387159794264 ]
      - [ -0.11949300987749, -0.00223526858879 ]
      - [  0.00017308763721, -0.00317905906052 ]
    - # atom 4
      - [  0.20689629579759, -0.00668219128330 ]
      - [  0.11945163018408, -0.00385796456267 ]
      - [  0.00021624828795,  0.00317641504189 ]
  - # 6
    frequency:    9.5534140405
    eigenvector:
    - # atom 1
      - [ -0.01161611381680,  0.00000000000000 ]
      - [ -0.00670656644024,  0.00000000000010 ]
      - [ -0.01321716980418, -0.70616391756254 ]
    - # atom 2
      - [  0.01160798553987, -0.00043447893638 ]
      - [  0.00670187357388, -0.00025084653085 ]
      - [  0.01320481481949,  0.70616414870092 ]
    - # atom 3
      - [ -0.00378685219712, -0.00007966518268 ]
      - [ -0.00218634013642, -0.00004599471460 ]
      - [ -0.00057700184411, -0.03095890979234 ]
    - # atom 4
      - [  0.00378122265198, -0.00022124953695 ]
      - [  0.00218308991783, -0.00012773847973 ]
      - [  0.00058136182571,  0.03095882822534 ]
  - # 7
    frequency:   15.0672337278
    eigenvector:
    - # atom 1
      - [  0.01314191138782,  0.00000000000000 ]
      - [  0.00758748609915, -0.00000000000145 ]
      - [  0.00016179532682,  0.28825667499271 ]
    - # atom 2
      - [  0.01314190300266, -0.00001485181199 ]
      - [  0.00758748124196, -0.00000857469832 ]
      - [  0.00016396669013,  0.28825667376577 ]
    - # atom 3
      - [ -0.01673349921971, -0.00079656167077 ]
      - [ -0.00966109029164, -0.00045989509345 ]
      - [ -0.00037903829182, -0.64521581429659 ]
    - # atom 4
      - [ -0.01673258831499,  0.00081547186507 ]
      - [ -0.00966056441835,  0.00047081290219 ]
      - [ -0.00035012715819, -0.64521583063299 ]
  - # 8
    frequency:   15.7413674612
    eigenvector:
    - # atom 1
      - [ -0.14437053614081,  0.00000000000000 ]
      - [  0.25005714069143,  0.00000000129845 ]
      - [  0.00000000004909, -0.00000000098026 ]
    - # atom 2
      - [ -0.14317205446435,  0.01856381023398 ]
      - [  0.24798130631444, -0.03215345712353 ]
      - [  0.00000000012955, -0.00000000092213 ]
    - # atom 3
      - [  0.31760460490989, -0.05731002470896 ]
      - [ -0.55010738679667,  0.09926385889772 ]
      - [ -0.00000000015009,  0.00000000118960 ]
    - # atom 4
      - [  0.32233720303047,  0.01599524684859 ]
      - [ -0.55830449630793, -0.02770457916579 ]
      - [ -0.00000000007750,  0.00000000123337 ]
  - # 9
    frequency:   15.7552001078
    eigenvector:
    - # atom 1
      - [  0.24937498005277,  0.00000000000000 ]
      - [  0.14397669217352,  0.00000000052238 ]
      - [  0.00027124278570, -0.01526758602801 ]
    - # atom 2
      - [  0.24717512224707,  0.03305056434002 ]
      - [  0.14270660216296,  0.01908175577873 ]
      - [  0.00175461832596, -0.01516885197705 ]
    - # atom 3
      - [ -0.54955266455663, -0.10173986056401 ]
      - [ -0.31728433148637, -0.05873954628421 ]
      - [ -0.00193568860600,  0.01915985738464 ]
    - # atom 4
      - [ -0.55818874248554,  0.02800816975189 ]
      - [ -0.32227037708810,  0.01617052548184 ]
      - [ -0.00062071218347,  0.01924738272505 ]
  - # 10
    frequency:   15.9570895212
    eigenvector:
    - # atom 1
      - [  0.11998026254537,  0.00000000000000 ]
      - [ -0.20781195688773,  0.00000000220239 ]
      - [  0.00000000007788,  0.00000000080323 ]
    - # atom 2
      - [ -0.11780472709354,  0.02274444151309 ]
      - [  0.20404382188142, -0.03939452033807 ]
      - [  0.00000000017877, -0.00000000086828 ]
    - # atom 3
      - [  0.32564765981457, -0.06751515822726 ]
      - [ -0.56403842778656,  0.11693966059876 ]
      - [ -0.00000000018015,  0.00000000070108 ]
    - # atom 4
      - [ -0.33254159831657, -0.00455850505723 ]
      - [  0.57597907323859,  0.00789555482164 ]
      - [ -0.00000000009909, -0.00000000062858 ]
  - # 11
    frequency:   15.9657076653
    eigenvector:
    - # atom 1
      - [ -0.20721503651296,  0.00000000000000 ]
      - [ -0.11963562839585,  0.00000000101417 ]
      - [  0.00036595423273,  0.00840714790607 ]
    - # atom 2
      - [  0.20321763929367,  0.04050508402799 ]
      - [  0.11732773212979,  0.02338562506781 ]
      - [  0.00200227080962, -0.00817343073745 ]
    - # atom 3
      - [ -0.56354153273702, -0.11998072456422 ]
      - [ -0.32536078156710, -0.06927091553287 ]
      - [ -0.00193235806055,  0.00649351121638 ]
    - # atom 4
      - [  0.57612330131065, -0.00750863688640 ]
      - [  0.33262486395644, -0.00433511755779 ]
      - [ -0.00062577024120, -0.00674596970025 ]
  - # 12
    frequency:   19.6976087786
    eigenvector:
    - # atom 1
      - [ -0.00404128285368,  0.00000000000000 ]
      - [ -0.00233323574225, -0.00000000000003 ]
      - [  0.00074737767726,  0.03107953726773 ]
    - # atom 2
      - [  0.00403661563356, -0.00019416829749 ]
      - [  0.00233054112220, -0.00011210311882 ]
      - [ -0.00074673922393, -0.03107955261423 ]
    - # atom 3
      - [ -0.00435586558401,  0.00002838791961 ]
      - [ -0.00251486016650,  0.00001638977300 ]
      - [ -0.01698301069550, -0.70618553229323 ]
    - # atom 4
      - [  0.00435219898953, -0.00018092766851 ]
      - [  0.00251274325566, -0.00010445863808 ]
      - [  0.01696613637847,  0.70618593790088 ]

- q-position: [    0.0300000,    0.0000000,    0.0000000 ]
  distance:    0.0056943
  band:
  - # 1
    frequency:    0.2366889507
    eigenvector:
    - # atom 1
      - [  0.22574965735654,  0.00000000000000 ]
      - [  0.13033662541008, -0.00000000230974 ]
      - [  0.00462861717872,  0.59075299995426 ]
    - # atom 2
      - [  0.22572012955141, -0.00365114833571 ]
      - [  0.13031957762827, -0.00210799378490 ]
      - [  0.00492650114366,  0.59075059089131 ]
    - # atom 3
      - [  0.09264654996004,  0.00320885725257 ]
      - [  0.05348951052309,  0.00185263356442 ]
      - [  0.00211350315062,  0.26753732143593 ]
    - # atom 4
      - [  0.09258253358981, -0.00470685079691 ]
      - [  0.05345255074105, -0.00271750260934 ]
      - [  0.00221377423995,  0.26753651051828 ]
  - # 2
    frequency:    0.3821630378
    eigenvector:
    - # atom 1
      - [ -0.32271585540966,  0.00000000000000 ]
      - [  0.55896025796878, -0.00000000034334 ]
      - [  0.00000000211370, -0.00000000002625 ]
    - # atom 2
      - [ -0.32264395210562, -0.00681200873473 ]
      - [  0.55883571794133,  0.01179874488988 ]
      - [  0.00000000211368, -0.00000000002506 ]
    - # atom 3
      - [ -0.14434828542342,  0.00424843078518 ]
      - [  0.25001856434322, -0.00735849805528 ]
      - [  0.00000000094565, -0.00000000001094 ]
    - # atom 4
      - [ -0.14422644615825, -0.00729444252815 ]
      - [  0.24980753259675,  0.01263434499211 ]
      - [  0.00000000094566, -0.00000000001204 ]
  - # 3
    frequency:    0.8774020338
    eigenvector:
    - # atom 1
      - [  0.51169586815329,  0.00000000000000 ]
      - [  0.29542774714783,  0.00000000080942 ]
      - [ -0.00321133132885, -0.26054021414668 ]
    - # atom 2
      - [  0.51157153010202, -0.01127967454013 ]
      - [  0.29535596059546, -0.00651232232614 ]
      - [ -0.00253272116728, -0.26054769459734 ]
    - # atom 3
      - [  0.23145217442303,  0.00658812443928 ]
      - [  0.13362897518374,  0.00380365577907 ]
      - [ -0.00131052609660, -0.10729337435338 ]
    - # atom 4
      - [  0.23125070669653, -0.01168858782795 ]
      - [  0.13351265774446, -0.00674840897304 ]
      - [ -0.00105493606873, -0.10729619177154 ]
  - # 4
    frequency:    4.1035391832
    eigenvector:
    - # atom 1
      - [  0.33269677685327,  0.00000000000000 ]
      - [ -0.57624772522234, -0.00000000140669 ]
      - [ -0.00000000001893,  0.00000000004017 ]
    - # atom 2
      - [ -0.33262660950440, -0.00683256765747 ]
      - [  0.57612619177367,  0.01183435565033 ]
      - [  0.00000000001506, -0.00000000006141 ]
    - # atom 3
      - [ -0.11958966736289,  0.00334137383492 ]
      - [  0.20713538132686, -0.00578742870628 ]
      - [ -0.00000000000618,  0.00000000000946 ]
    - # atom 4
      - [  0.11949582369147,  0.00579667275787 ]
      - [ -0.20697283951964, -0.01004013216743 ]
      - [  0.00000000000359, -0.00000000001997 ]
  - # 5
    frequency:    4.1755983386
    eigenvector:
    - # atom 1
      - [  0.57644781999008,  0.00000000000000 ]
      - [  0.33281230165685,  0.00000000081379 ]
      - [  0.00047099557713, -0.01660173607985 ]
    - # atom 2
      - [ -0.57632648186486,  0.01182689750269 ]