calculator: qe
length_unit: au
nqpoint: 357    
npath: 7      
segment_nqpoint:
- 51
- 51
- 51
- 51
- 51
- 51
- 51
reciprocal_lattice:
- [   0.16438123,   0.09490554,   0.00000000 ] # a*
- [   0.00000000,   0.18981109,   0.00000000 ] # b*
- [   0.00000000,   0.00000000,   0.10091172 ] # c*
natom: 4      
lattice:
- [     6.083419775700261,     0.000000000000000,     0.000000000000000 ] # a
- [    -3.041709887850131,     5.268396068308857,     0.000000000000000 ] # b
- [     0.000000000000000,     0.000000000000000,     9.909651624673433 ] # c
points:
- symbol: Ga # 1
  coordinates: [  0.666666666700000,  0.333333333300000,  0.499121070200000 ]
  mass: 69.723000
- symbol: Ga # 2
  coordinates: [  0.333333333300000,  0.666666666700000,  0.999121070200000 ]
  mass: 69.723000
- symbol: N  # 3
  coordinates: [  0.666666666700000,  0.333333333300000,  0.875878929800000 ]
  mass: 14.006700
- symbol: N  # 4
  coordinates: [  0.333333333300000,  0.666666666700000,  0.375878929800000 ]
  mass: 14.006700

phonon:
- q-position: [    0.0000000,    0.0000000,    0.0000000 ]
  distance:    0.0000000
  band:
  - # 1
    frequency:   -0.0053867521
  - # 2
    frequency:   -0.0023602512
  - # 3
    frequency:   -0.0023602512
  - # 4
    frequency:    4.0854949795
  - # 5
    frequency:    4.0854949800
  - # 6
    frequency:    9.5596858901
  - # 7
    frequency:   15.0640341939
  - # 8
    frequency:   15.7411919670
  - # 9
    frequency:   15.7411919687
  - # 10
    frequency:   15.9504164387
  - # 11
    frequency:   15.9504164404
  - # 12
    frequency:   19.7012267586

- q-position: [    0.0100000,    0.0000000,    0.0000000 ]
  distance:    0.0018981
  band:
  - # 1
    frequency:   -0.2107348766
  - # 2
    frequency:    0.1275447683
  - # 3
    frequency:    0.3693260038
  - # 4
    frequency:    4.0875111646
  - # 5
    frequency:    4.0956544823
  - # 6
    frequency:    9.5581163098
  - # 7
    frequency:   15.0648316386
  - # 8
    frequency:   15.7412270303
  - # 9
    frequency:   15.7447012879
  - # 10
    frequency:   15.9520951338
  - # 11
    frequency:   15.9542421021
  - # 12
    frequency:   19.7003218838

- q-position: [    0.0200000,    0.0000000,    0.0000000 ]
  distance:    0.0037962
  band:
  - # 1
    frequency:   -0.1427711412
  - # 2
    frequency:    0.2549898832
  - # 3
    frequency:    0.6229483258
  - # 4
    frequency:    4.0935427504
  - # 5
    frequency:    4.1259081558
  - # 6
    frequency:    9.5534140405
  - # 7
    frequency:   15.0672337278
  - # 8
    frequency:   15.7413674612
  - # 9
    frequency:   15.7552001078
  - # 10
    frequency:   15.9570895212
  - # 11
    frequency:   15.9657076653
  - # 12
    frequency:   19.6976087786

- q-position: [    0.0300000,    0.0000000,    0.0000000 ]
  distance:    0.0056943
  band:
  - # 1
    frequency:    0.2366889507
  - # 2
    frequency:    0.3821630378
  - # 3
    frequency:    0.8774020338
  - # 4
    frequency:    4.1035391832
  - # 5
    frequency:    4.1755983386
  - # 6
    frequency:    9.5455984896
  - # 7
    frequency:   15.0712682961
  - # 8
    frequency:   15.7417107518
  - # 9
    frequency:   15.7726034168
  - # 10
    frequency:   15.9652827740
  - # 11
    frequency:   15.9847780109
  - # 12
    frequency:   19.6930920101

- q-position: [    0.0400000,    0.0000000,    0.0000000 ]
  distance:    0.0075924
  band:
  - # 1
    frequency:    0.4200606407
  - # 2
    frequency:    0.5089376645
  - # 3
    frequency:    1.1349534938
  - # 4
    frequency:    4.1174173632
  - # 5
    frequency:    4.2436820631
  - # 6
    frequency:    9.5347019849
  - # 7
    frequency:   15.0769773317
  - # 8
    frequency:   15.7423957620
  - # 9
    frequency:   15.7967770284
  - # 10
    frequency:   15.9765038675
  - # 11
    frequency:   16.0113919566
  - # 12
    frequency:   19.6867792247

- q-position: [    0.0500000,    0.0000000,    0.0000000 ]
  distance:    0.0094906
  band:
  - # 1
    frequency:    0.5804370358
  - # 2
    frequency:    0.6351832131
  - # 3
    frequency:    1.3943508716
  - # 4
    frequency:    4.1350633250
  - # 5
    frequency:    4.3288011935
  - # 6
    frequency:    9.5207697669
  - # 7
    frequency:   15.0844115134
  - # 8
    frequency:   15.7435778112
  - # 9
    frequency:   15.8275471304
  - # 10
    frequency:   15.9905525831
  - # 11
    frequency:   16.0454588223
  - # 12
    frequency:   19.6786812015

- q-position: [    0.0600000,    0.0000000,    0.0000000 ]
  distance:    0.0113887
  band:
  - # 1
    frequency:    0.7316828410
  - # 2
    frequency:    0.7607689300
  - # 3
    frequency:    1.6543015897
  - # 4
    frequency:    4.1563344826
  - # 5
    frequency:    4.4293644088
  - # 6
    frequency:    9.5038600158
  - # 7
    frequency:   15.0936243803
  - # 8
    frequency:   15.7454074839
  - # 9
    frequency:   15.8647108160
  - # 10
    frequency:   16.0072208350
  - # 11
    frequency:   16.0868546158
  - # 12
    frequency:   19.6688119302

- q-position: [    0.0700000,    0.0000000,    0.0000000 ]
  distance:    0.0132868
  band:
  - # 1
    frequency:    0.8778415761
  - # 2
    frequency:    0.8855645270
  - # 3
    frequency:    1.9138128286
  - # 4
    frequency:    4.1810623446
  - # 5
    frequency:    4.5436303199
  - # 6
    frequency:    9.4840439532
  - # 7
    frequency:   15.1046671411
  - # 8
    frequency:   15.7480167461
  - # 9
    frequency:   15.9080458012
  - # 10
    frequency:   16.0263067263
  - # 11
    frequency:   16.1354186058
  - # 12
    frequency:   19.6571887182

- q-position: [    0.0800000,    0.0000000,    0.0000000 ]
  distance:    0.0151849
  band:
  - # 1
    frequency:    1.0094404696
  - # 2
    frequency:    1.0206770108
  - # 3
    frequency:    2.1721330935
  - # 4
    frequency:    4.2090555880
  - # 5
    frequency:    4.6697832094
  - # 6
    frequency:    9.4614060639
  - # 7
    frequency:   15.1175847325
  - # 8
    frequency:   15.7515121816
  - # 9
    frequency:   15.9573180134
  - # 10
    frequency:   16.0476215221
  - # 11
    frequency:   16.1909509583
  - # 12
    frequency:   19.6438323313

- q-position: [    0.0900000,    0.0000000,    0.0000000 ]
  distance:    0.0170830
  band:
  - # 1
    frequency:    1.1322681900
  - # 2
    frequency:    1.1610993088
  - # 3
    frequency:    2.4286722624
  - # 4
    frequency:    4.2401033742
  - # 5
    frequency:    4.8059960945
  - # 6
    frequency:    9.4360445003
  - # 7
    frequency:   15.1324133044
  - # 8
    frequency:   15.7559733654
  - # 9
    frequency:   16.0122864134
  - # 10
    frequency:   16.0709915295
  - # 11
    frequency:   16.2532118674
  - # 12
    frequency:   19.6287671753

- q-position: [    0.1000000,    0.0000000,    0.0000000 ]
  distance:    0.0189811
  band:
  - # 1
    frequency:    1.2539202837
  - # 2
    frequency:    1.2996205621
  - # 3
    frequency:    2.6829463152
  - # 4
    frequency:    4.2739787922
  - # 5
    frequency:    4.9504789540
  - # 6
    frequency:    9.4080717404
  - # 7
    frequency:   15.1491789920
  - # 8
    frequency:   15.7614542113
  - # 9
    frequency:   16.0727050677
  - # 10
    frequency:   16.0962570418
  - # 11
    frequency:   16.3219222769
  - # 12
    frequency:   19.6120215296

- q-position: [    0.1100000,    0.0000000,    0.0000000 ]
  distance:    0.0208792
  band:
  - # 1
    frequency:    1.3742707058
  - # 2
    frequency:    1.4365418881
  - # 3
    frequency:    2.9345431091
  - # 4
    frequency:    4.3104423197
  - # 5
    frequency:    5.1015123746
  - # 6
    frequency:    9.3776155873
  - # 7
    frequency:   15.1678976612
  - # 8
    frequency:   15.7679856830
  - # 9
    frequency:   16.1232699627
  - # 10
    frequency:   16.1383229663
  - # 11
    frequency:   16.3967659768
  - # 12
    frequency:   19.5936278432

- q-position: [    0.1200000,    0.0000000,    0.0000000 ]
  distance:    0.0227773
  band:
  - # 1
    frequency:    1.4931949712
  - # 2
    frequency:    1.5720426780
  - # 3
    frequency:    3.1831015452
  - # 4
    frequency:    4.3492452054
  - # 5
    frequency:    5.2574683359
  - # 6
    frequency:    9.3448206169
  - # 7
    frequency:   15.1885752803
  - # 8
    frequency:   15.7755788828
  - # 9
    frequency:   16.1518910960
  - # 10
    frequency:   16.2088823215
  - # 11
    frequency:   16.4773926607
  - # 12
    frequency:   19.5736231147

- q-position: [    0.1300000,    0.0000000,    0.0000000 ]
  distance:    0.0246754
  band:
  - # 1
    frequency:    1.6105703592
  - # 2
    frequency:    1.7062276743
  - # 3
    frequency:    3.4282987130
  - # 4
    frequency:    4.3901326934
  - # 5
    frequency:    5.4168204752
  - # 6
    frequency:    9.3098502067
  - # 7
    frequency:   15.2112086115
  - # 8
    frequency:   15.7842280132
  - # 9
    frequency:   16.1819876041
  - # 10
    frequency:   16.2841160969
  - # 11
    frequency:   16.5634214677
  - # 12
    frequency:   19.5520493757

- q-position: [    0.1400000,    0.0000000,    0.0000000 ]
  distance:    0.0265736
  band:
  - # 1
    frequency:    1.7262761192
  - # 2
    frequency:    1.8391537142
  - # 3
    frequency:    3.6698417177
  - # 4
    frequency:    4.4328470250
  - # 5
    frequency:    5.5781462031
  - # 6
    frequency:    9.2728893124
  - # 7
    frequency:   15.2357859973
  - # 8
    frequency:   15.7939130025
  - # 9
    frequency:   16.2134308481
  - # 10
    frequency:   16.3637453795
  - # 11
    frequency:   16.6544445874
  - # 12
    frequency:   19.5289543149

- q-position: [    0.1500000,    0.0000000,    0.0000000 ]
  distance:    0.0284717
  band:
  - # 1
    frequency:    1.8401936774
  - # 2
    frequency:    1.9708458350
  - # 3
    frequency:    3.9074622363
  - # 4
    frequency:    4.4771301720
  - # 5
    frequency:    5.7401227154
  - # 6
    frequency:    9.2341482029
  - # 7
    frequency:   15.2622880911
  - # 8
    frequency:   15.8046017404
  - # 9
    frequency:   16.2460946599
  - # 10
    frequency:   16.4474770086
  - # 11
    frequency:   16.7500306197
  - # 12
    frequency:   19.5043920849

- q-position: [    0.1600000,    0.0000000,    0.0000000 ]
  distance:    0.0303698
  band:
  - # 1
    frequency:    1.9522068396
  - # 2
    frequency:    2.1013074519
  - # 3
    frequency:    4.1409126369
  - # 4
    frequency:    4.5227262737
  - # 5
    frequency:    5.9015184776
  - # 6
    frequency:    9.1938674212
  - # 7
    frequency:   15.2906884541
  - # 8
    frequency:   15.8162519487
  - # 9
    frequency:   16.2798540228
  - # 10
    frequency:   16.5350016777
  - # 11
    frequency:   16.8497274935
  - # 12
    frequency:   19.4784243572

- q-position: [    0.1700000,    0.0000000,    0.0000000 ]
  distance:    0.0322679
  band:
  - # 1
    frequency:    2.0622019899
  - # 2
    frequency:    2.2305270563
  - # 3
    frequency:    4.3699629332
  - # 4
    frequency:    4.5693837611
  - # 5
    frequency:    6.0611812646
  - # 6
    frequency:    9.1523243090
  - # 7
    frequency:   15.3209539827
  - # 8
    frequency:   15.8288127379
  - # 9
    frequency:   16.3145841096
  - # 10
    frequency:   16.6259925742
  - # 11
    frequency:   16.9530648295
  - # 12
    frequency:   19.4511217159

- q-position: [    0.1800000,    0.0000000,    0.0000000 ]
  distance:    0.0341660
  band:
  - # 1
    frequency:    2.1700682788
  - # 2
    frequency:    2.3584827771
  - # 3
    frequency:    4.5943980913
  - # 4
    frequency:    4.6168571673
  - # 5
    frequency:    6.2180233968
  - # 6
    frequency:    9.1098415034
  - # 7
    frequency:   15.3530451625
  - # 8
    frequency:   15.8422259061
  - # 9
    frequency:   16.3501596184
  - # 10
    frequency:   16.7201045178
  - # 11
    frequency:   17.0595556656
  - # 12
    frequency:   19.4225655208

- q-position: [    0.1900000,    0.0000000,    0.0000000 ]
  distance:    0.0360641
  band:
  - # 1
    frequency:    2.2756978019
  - # 2
    frequency:    2.4851455698
  - # 3
    frequency:    4.6649086327
  - # 4
    frequency:    4.8140153245
  - # 5
    frequency:    6.3710044790
  - # 6
    frequency:    9.0667978772
  - # 7
    frequency:   15.3869161634
  - # 8
    frequency:   15.8564270350
  - # 9
    frequency:   16.3864543530
  - # 10
    frequency:   16.8169734942
  - # 11
    frequency:   17.1686974432
  - # 12
    frequency:   19.3928504322

- q-position: [    0.2000000,    0.0000000,    0.0000000 ]
  distance:    0.0379622
  band:
  - # 1
    frequency:    2.3789857640
  - # 2
    frequency:    2.6104814843
  - # 3
    frequency:    4.7133091195
  - # 4
    frequency:    5.0286210455
  - # 5
    frequency:    6.5191117755
  - # 6
    frequency:    9.0236423948
  - # 7
    frequency:   15.4225147943
  - # 8
    frequency:   15.8713464246
  - # 9
    frequency:   16.4233410008
  - # 10
    frequency:   16.9162164431
  - # 11
    frequency:   17.2799720892
  - # 12
    frequency:   19.3620878881

- q-position: [    0.2100000,    0.0000000,    0.0000000 ]
  distance:    0.0398603
  band:
  - # 1
    frequency:    2.4798306281
  - # 2
    frequency:    2.7344532860
  - # 3
    frequency:    4.7618393572
  - # 4
    frequency:    5.2380270972
  - # 5
    frequency:    6.6613384499
  - # 6
    frequency:    8.9809111949
  - # 7
    frequency:   15.4597823399
  - # 8
    frequency:   15.8869099058
  - # 9
    frequency:   16.4606910697
  - # 10
    frequency:   17.0174311238
  - # 11
    frequency:   17.3928449012
  - # 12
    frequency:   19.3304109727

- q-position: [    0.2200000,    0.0000000,    0.0000000 ]
  distance:    0.0417584
  band:
  - # 1
    frequency:    2.5781342469
  - # 2
    frequency:    2.8570215926
  - # 3
    frequency:    4.8102905441
  - # 4
    frequency:    5.4420457412
  - # 5
    frequency:    6.7966604917
  - # 6
    frequency:    8.9392476904
  - # 7
    frequency:   15.4986532977
  - # 8
    frequency:   15.9030395582
  - # 9
    frequency:   16.4983749523
  - # 10
    frequency:   17.1201958375
  - # 11
    frequency:   17.5067617408
  - # 12
    frequency:   19.2979813649

- q-position: [    0.2300000,    0.0000000,    0.0000000 ]
  distance:    0.0436566
  band:
  - # 1
    frequency:    2.6738019758
  - # 2
    frequency:    2.9781456302
  - # 3
    frequency:    4.8584648294
  - # 4
    frequency:    5.6404825862
  - # 5
    frequency:    6.9240146516
  - # 6
    frequency:    8.8994242204
  - # 7
    frequency:   15.5390550306
  - # 8
    frequency:   15.9196543552
  - # 9
    frequency:   16.5362620919
  - # 10
    frequency:   17.2240687105
  - # 11
    frequency:   17.6211437025
  - # 12
    frequency:   19.2649994641

- q-position: [    0.2400000,    0.0000000,    0.0000000 ]
  distance:    0.0455547
  band:
  - # 1
    frequency:    2.7667427664
  - # 2
    frequency:    3.0977836666
  - # 3
    frequency:    4.9061756041
  - # 4
    frequency:    5.8331260672
  - # 5
    frequency:    7.0422828320
  - # 6
    frequency:    8.8623612127
  - # 7
    frequency:   15.5809073426
  - # 8
    frequency:   15.9366707546
  - # 9
    frequency:   16.5742212296
  - # 10
    frequency:   17.3285861126
  - # 11
    frequency:   17.7353778743
  - # 12
    frequency:   19.2317194710

- q-position: [    0.2500000,    0.0000000,    0.0000000 ]
  distance:    0.0474528
  band:
  - # 1
    frequency:    2.8568692413
  - # 2
    frequency:    3.2158931518
  - # 3
    frequency:    4.9532476250
  - # 4
    frequency:    6.0197309862
  - # 5
    frequency:    7.1502940769
  - # 6
    frequency:    8.8291352058
  - # 7
    frequency:   15.6241219829
  - # 8
    frequency:   15.9540032464
  - # 9
    frequency:   16.6121207161
  - # 10
    frequency:   17.4332595586
  - # 11
    frequency:   17.8488018555
  - # 12
    frequency:   19.1984723806

- q-position: [    0.2600000,    0.0000000,    0.0000000 ]
  distance:    0.0493509
  band:
  - # 1
    frequency:    2.9440977486
  - # 2
    frequency:    3.3324305775
  - # 3
    frequency:    4.9995169987
  - # 4
    frequency:    6.1999914366
  - # 5
    frequency:    7.2468643266
  - # 6
    frequency:    8.8009602470
  - # 7
    frequency:   15.6686020741
  - # 8
    frequency:   15.9715648690
  - # 9
    frequency:   16.6498288730
  - # 10
    frequency:   17.5375700437
  - # 11
    frequency:   17.9606780927
  - # 12
    frequency:   19.1657018463

- q-position: [    0.2700000,    0.0000000,    0.0000000 ]
  distance:    0.0512490
  band:
  - # 1
    frequency:    3.0283483976
  - # 2
    frequency:    3.4473510496
  - # 3
    frequency:    5.0448310464
  - # 4
    frequency:    6.3734939152
  - # 5
    frequency:    7.3309056068
  - # 6
    frequency:    8.7791202009
  - # 7
    frequency:   15.7142414569
  - # 8
    frequency:   15.9892676997
  - # 9
    frequency:   16.6872143930
  - # 10
    frequency:   17.6409580538
  - # 11
    frequency:   18.0701514186
  - # 12
    frequency:   19.1340212633

- q-position: [    0.2800000,    0.0000000,    0.0000000 ]
  distance:    0.0531471
  band:
  - # 1
    frequency:    3.1095450769
  - # 2
    frequency:    3.5606075547
  - # 3
    frequency:    5.0890480715
  - # 4
    frequency:    6.5396317577
  - # 5
    frequency:    7.4016459379
  - # 6
    frequency:    8.7648295668
  - # 7
    frequency:   15.7609239360
  - # 8
    frequency:   16.0070233260
  - # 9
    frequency:   16.7241467690
  - # 10
    frequency:   17.7428062056
  - # 11
    frequency:   18.1761791883
  - # 12
    frequency:   19.1043057027

- q-position: [    0.2900000,    0.0000000,    0.0000000 ]
  distance:    0.0550452
  band:
  - # 1
    frequency:    3.1876154557
  - # 2
    frequency:    3.6721498865
  - # 3
    frequency:    5.1320370497
  - # 4
    frequency:    6.6974407963
  - # 5
    frequency:    7.4590027188
  - # 6
    frequency:    8.7590201893
  - # 7
    frequency:   15.8085224084
  - # 8
    frequency:   16.0247433003
  - # 9
    frequency:   16.7604967429
  - # 10
    frequency:   17.8424091048
  - # 11
    frequency:   18.2774195648
  - # 12
    frequency:   19.0778385386

- q-position: [    0.3000000,    0.0000000,    0.0000000 ]
  distance:    0.0569433
  band:
  - # 1
    frequency:    3.2624909692
  - # 2
    frequency:    3.7819231832
  - # 3
    frequency:    5.1736772562
  - # 4
    frequency:    6.8452705332
  - # 5
    frequency:    7.5041512544
  - # 6
    frequency:    8.7620979438
  - # 7
    frequency:   15.8568978462
  - # 8
    frequency:   16.0423395810
  - # 9
    frequency:   16.7961367687
  - # 10
    frequency:   17.9389206954
  - # 11
    frequency:   18.3720698912
  - # 12
    frequency:   19.0565305515

- q-position: [    0.3100000,    0.0000000,    0.0000000 ]
  distance:    0.0588414
  band:
  - # 1
    frequency:    3.3341067914
  - # 2
    frequency:    3.8898660081
  - # 3
    frequency:    5.2138578480
  - # 4
    frequency:    6.9801251287
  - # 5
    frequency:    7.5403585196
  - # 6
    frequency:    8.7737650809
  - # 7
    frequency:   15.9058981053
  - # 8
    frequency:   16.0597249616
  - # 9
    frequency:   16.8309414807
  - # 10
    frequency:   18.0312619273
  - # 11
    frequency:   18.4577052497
  - # 12
    frequency:   19.0431785794

- q-position: [    0.3200000,    0.0000000,    0.0000000 ]
  distance:    0.0607395
  band:
  - # 1
    frequency:    3.4024017953
  - # 2
    frequency:    3.9959078831
  - # 3
    frequency:    5.2524774101
  - # 4
    frequency:    7.0965124815
  - # 5
    frequency:    7.5741464122
  - # 6
    frequency:    8.7930057895
  - # 7
    frequency:   15.9553565235
  - # 8
    frequency:   16.0768134881
  - # 9
    frequency:   16.8647881648
  - # 10
    frequency:   18.1179613462
  - # 11
    frequency:   18.5313888058
  - # 12
    frequency:   19.0415195213

- q-position: [    0.3300000,    0.0000000,    0.0000000 ]
  distance:    0.0626377
  band:
  - # 1
    frequency:    3.4673185039
  - # 2
    frequency:    4.0999661531
  - # 3
    frequency:    5.2894434810
  - # 4
    frequency:    7.1856007852
  - # 5
    frequency:    7.6159646538
  - # 6
    frequency:    8.8182555604
  - # 7
    frequency:   16.0050902718
  - # 8
    frequency:   16.0935208656
  - # 9
    frequency:   16.8975572253
  - # 10
    frequency:   18.1969005679
  - # 11
    frequency:   18.5907541273
  - # 12
    frequency:   19.0554075555

- q-position: [    0.3400000,    0.0000000,    0.0000000 ]
  distance:    0.0645358
  band:
  - # 1
    frequency:    3.5288030336
  - # 2
    frequency:    4.2019420252
  - # 3
    frequency:    5.3246720634
  - # 4
    frequency:    7.2387048062
  - # 5
    frequency:    7.6764305312
  - # 6
    frequency:    8.8476750718
  - # 7
    frequency:   16.0548984250
  - # 8
    frequency:   16.1097648528
  - # 9
    frequency:   16.9291326445
  - # 10
    frequency:   18.2650100749
  - # 11
    frequency:   18.6365004182
  - # 12
    frequency:   19.0866282097

- q-position: [    0.3500000,    0.0000000,    0.0000000 ]
  distance:    0.0664339
  band:
  - # 1
    frequency:    3.5868050315
  - # 2
    frequency:    4.3017155782
  - # 3
    frequency:    5.3580871309
  - # 4
    frequency:    7.2559637930
  - # 5
    frequency:    7.7573886315
  - # 6
    frequency:    8.8794137395
  - # 7
    frequency:   16.1045597223
  - # 8
    frequency:   16.1254656448
  - # 9
    frequency:   16.9594024312
  - # 10
    frequency:   18.3182879371
  - # 11
    frequency:   18.6741965668
  - # 12
    frequency:   19.1330807971

- q-position: [    0.3600000,    0.0000000,    0.0000000 ]
  distance:    0.0683320
  band:
  - # 1
    frequency:    3.6412776096
  - # 2
    frequency:    4.3991394793
  - # 3
    frequency:    5.3896201356
  - # 4
    frequency:    7.2464305340
  - # 5
    frequency:    7.8516443290
  - # 6
    frequency:    8.9117899182
  - # 7
    frequency:   16.1405462429
  - # 8
    frequency:   16.1538300126
  - # 9
    frequency:   16.9882590544
  - # 10
    frequency:   18.3530555393
  - # 11
    frequency:   18.7119033996
  - # 12
    frequency:   19.1899057406

- q-position: [    0.3700000,    0.0000000,    0.0000000 ]
  distance:    0.0702301
  band:
  - # 1
    frequency:    3.6921772762
  - # 2
    frequency:    4.4940310828
  - # 3
    frequency:    5.4192095246
  - # 4
    frequency:    7.2196074879
  - # 5
    frequency:    7.9513461632
  - # 6
    frequency:    8.9433770137
  - # 7
    frequency:   16.1549328095
  - # 8
    frequency:   16.2024394081
  - # 9
    frequency:   17.0155998604
  - # 10
    frequency:   18.3685125450
  - # 11
    frequency:   18.7550052965
  - # 12
    frequency:   19.2521033725

- q-position: [    0.3800000,    0.0000000,    0.0000000 ]
  distance:    0.0721282
  band:
  - # 1
    frequency:    3.7394638681
  - # 2
    frequency:    4.5861625185
  - # 3
    frequency:    5.4468002681
  - # 4
    frequency:    7.1819284891
  - # 5
    frequency:    8.0514934867
  - # 6
    frequency:    8.9730210163
  - # 7
    frequency:   16.1685550088
  - # 8
    frequency:   16.2500892333
  - # 9
    frequency:   17.0413274701
  - # 10
    frequency:   18.3677172169
  - # 11
    frequency:   18.8038857897
  - # 12
    frequency:   19.3158833799

- q-position: [    0.3900000,    0.0000000,    0.0000000 ]
  distance:    0.0740263
  band:
  - # 1
    frequency:    3.7831004829
  - # 2
    frequency:    4.6752483287
  - # 3
    frequency:    5.4723434056
  - # 4
    frequency:    7.1374194285
  - # 5
    frequency:    8.1493046186
  - # 6
    frequency:    8.9998212517
  - # 7
    frequency:   16.1813463302
  - # 8
    frequency:   16.2964489469
  - # 9
    frequency:   17.0653501550
  - # 10
    frequency:   18.3554701770
  - # 11
    frequency:   18.8560209735
  - # 12
    frequency:   19.3786928066

- q-position: [    0.4000000,    0.0000000,    0.0000000 ]
  distance:    0.0759244
  band:
  - # 1
    frequency:    3.8230534155
  - # 2
    frequency:    4.7609302381
  - # 3
    frequency:    5.4957956124
  - # 4
    frequency:    7.0887501781
  - # 5
    frequency:    8.2432098699
  - # 6
    frequency:    9.0230981291
  - # 7
    frequency:   16.1932443941
  - # 8
    frequency:   16.3411533610
  - # 9
    frequency:   17.0875821899
  - # 10
    frequency:   18.3360710944
  - # 11
    frequency:   18.9085918421
  - # 12
    frequency:   19.4388516954

- q-position: [    0.4100000,    0.0000000,    0.0000000 ]
  distance:    0.0778225
  band:
  - # 1
    frequency:    3.8592920964
  - # 2
    frequency:    4.8427588102
  - # 3
    frequency:    5.5171187899
  - # 4
    frequency:    7.0378787188
  - # 5
    frequency:    8.3322546392
  - # 6
    frequency:    9.0423619653
  - # 7
    frequency:   16.2041912387
  - # 8
    frequency:   16.3838006745
  - # 9
    frequency:   17.1079441810
  - # 10
    frequency:   18.3126716780
  - # 11
    frequency:   18.9594560380
  - # 12
    frequency:   19.4952319930

- q-position: [    0.4200000,    0.0000000,    0.0000000 ]
  distance:    0.0797207
  band:
  - # 1
    frequency:    3.8917890356
  - # 2
    frequency:    4.9201722545
  - # 3
    frequency:    5.5362796838
  - # 4
    frequency:    6.9864031560
  - # 5
    frequency:    8.4157890292
  - # 6
    frequency:    9.0572904803
  - # 7
    frequency:   16.2141335861
  - # 8
    frequency:   16.4239521019
  - # 9
    frequency:   17.1263633685
  - # 10
    frequency:   18.2874831614
  - # 11
    frequency:   19.0071509792
  - # 12
    frequency:   19.5470487977

- q-position: [    0.4300000,    0.0000000,    0.0000000 ]
  distance:    0.0816188
  band:
  - # 1
    frequency:    3.9205197717
  - # 2
    frequency:    4.9924737685
  - # 3
    frequency:    5.5532495298
  - # 4
    frequency:    6.9357613478
  - # 5
    frequency:    8.4932979702
  - # 6
    frequency:    9.0677198602
  - # 7
    frequency:   16.2230230874
  - # 8
    frequency:   16.4611341680
  - # 9
    frequency:   17.1427739017
  - # 10
    frequency:   18.2621043077
  - # 11
    frequency:   19.0506895253
  - # 12
    frequency:   19.5937356963

- q-position: [    0.4400000,    0.0000000,    0.0000000 ]
  distance:    0.0835169
  band:
  - # 1
    frequency:    3.9454628255
  - # 2
    frequency:    5.0588109629
  - # 3
    frequency:    5.5680037319
  - # 4
    frequency:    6.8873507939
  - # 5
    frequency:    8.5642902125
  - # 6
    frequency:    9.0736548258
  - # 7
    frequency:   16.2308165450
  - # 8
    frequency:   16.4948450033
  - # 9
    frequency:   17.1571170878
  - # 10
    frequency:   18.2377587778
  - # 11
    frequency:   19.0893907229
  - # 12
    frequency:   19.6348714848

- q-position: [    0.4500000,    0.0000000,    0.0000000 ]
  distance:    0.0854150
  band:
  - # 1
    frequency:    3.9665996604
  - # 2
    frequency:    5.1181645250
  - # 3
    frequency:    5.5805215739
  - # 4
    frequency:    6.8425986417
  - # 5
    frequency:    8.6282002412
  - # 6
    frequency:    9.0753066302
  - # 7
    frequency:   16.2374761105
  - # 8
    frequency:   16.5245660767
  - # 9
    frequency:   17.1693416116
  - # 10
    frequency:   18.2154359707
  - # 11
    frequency:   19.1227717161
  - # 12
    frequency:   19.6701366533

- q-position: [    0.4600000,    0.0000000,    0.0000000 ]
  distance:    0.0873131
  band:
  - # 1
    frequency:    3.9839146479
  - # 2
    frequency:    5.1693582580
  - # 3
    frequency:    5.5907859652
  - # 4
    frequency:    6.8029878620
  - # 5
    frequency:    8.6842701927
  - # 6
    frequency:    9.0731737131
  - # 7
    frequency:   16.2429694592
  - # 8
    frequency:   16.5497805363
  - # 9
    frequency:   17.1794037269
  - # 10
    frequency:   18.1959643911
  - # 11
    frequency:   19.1504831895
  - # 12
    frequency:   19.6992870489

- q-position: [    0.4700000,    0.0000000,    0.0000000 ]
  distance:    0.0892112
  band:
  - # 1
    frequency:    3.9973950388
  - # 2
    frequency:    5.2111072637
  - # 3
    frequency:    5.5987832238
  - # 4
    frequency:    6.7700321578
  - # 5
    frequency:    8.7313853815
  - # 6
    frequency:    9.0681820653
  - # 7
    frequency:   16.2472699386
  - # 8
    frequency:   16.5699984783
  - # 9
    frequency:   17.1872674191
  - # 10
    frequency:   18.1800414417
  - # 11
    frequency:   19.1722712287
  - # 12
    frequency:   19.7221376262

- q-position: [    0.4800000,    0.0000000,    0.0000000 ]
  distance:    0.0911093
  band:
  - # 1
    frequency:    4.0070309408
  - # 2
    frequency:    5.2421205126
  - # 3
    frequency:    5.6045028963
  - # 4
    frequency:    6.7451883829
  - # 5
    frequency:    8.7678724707
  - # 6
    frequency:    9.0618712434
  - # 7
    frequency:   16.2503566908
  - # 8
    frequency:   16.5847879069
  - # 9
    frequency:   17.1929045383
  - # 10
    frequency:   18.1682358158
  - # 11
    frequency:   19.1879546663
  - # 12
    frequency:   19.7385522864

- q-position: [    0.4900000,    0.0000000,    0.0000000 ]
  distance:    0.0930074
  band:
  - # 1
    frequency:    4.0128153000
  - # 2
    frequency:    5.2612608764
  - # 3
    frequency:    5.6079376175
  - # 4
    frequency:    6.7297062193
  - # 5
    frequency:    8.7914261976
  - # 6
    frequency:    9.0564572984
  - # 7
    frequency:   16.2522147484
  - # 8
    frequency:   16.5938080793
  - # 9
    frequency:   17.1962949031
  - # 10
    frequency:   18.1609743858
  - # 11
    frequency:   19.1974116067
  - # 12
    frequency:   19.7484375303

- q-position: [    0.5000000,    0.0000000,    0.0000000 ]
  distance:    0.0949055
  band:
  - # 1
    frequency:    4.0147438891
  - # 2
    frequency:    5.2677361532
  - # 3
    frequency:    5.6090830088
  - # 4
    frequency:    6.7244432006
  - # 5
    frequency:    8.7996452470
  - # 6
    frequency:    9.0542903986
  - # 7
    frequency:   16.2528351033
  - # 8
    frequency:   16.5968400068
  - # 9
    frequency:   17.1974263751
  - # 10
    frequency:   18.1585236460
  - # 11
    frequency:   19.2005716068
  - # 12
    frequency:   19.7517386215

- q-position: [    0.5000000,    0.0000000,    0.0000000 ]
  distance:    0.0949055
  band:
  - # 1
    frequency:    4.0147438891
  - # 2
    frequency:    5.2677361532
  - # 3
    frequency:    5.6090830088
  - # 4