32   
4    

1    
  0.0104634444491546   0.0000000000000000   0.0170445396024491
  -0.0036374003   -0.0000256300   -0.0059615506
   0.0009456897    0.0002418000   -0.0004404306
  -0.0001546903   -0.0006341000   -0.0005651806
   0.0002657397    0.0003938900   -0.0003130106
   0.0000281897    0.0000004400    0.0004553394
  -0.0000268403   -0.0000555100    0.0002117994
   0.0000511397    0.0000445200    0.0002380294
  -0.0000457603    0.0000104500    0.0001820494
  -0.0005545503    0.0003398400    0.0002583594
   0.0006026697    0.0003308200    0.0006810494
   0.0000317597   -0.0006690900    0.0004689794
  -0.0000379503   -0.0000007200    0.0001499994
   0.0003584397   -0.0001874900    0.0008148094
  -0.0003146503   -0.0002002100    0.0001058394
   0.0000326597    0.0003884300    0.0004609494
  -0.0000381103   -0.0000003000    0.0001428694
   0.0003048497   -0.0000002400    0.0024899094
  -0.0000892603   -0.0000529400    0.0001058794
   0.0000432597    0.0000763600    0.0001690394
  -0.0000485003   -0.0000236900    0.0000432894
   0.0000645197    0.0000002200   -0.0004009306
  -0.0000686603    0.0000134800   -0.0001759806
  -0.0000029203    0.0000377700   -0.0002731506
   0.0000198697   -0.0000514100   -0.0000786706
   0.0016744397   -0.0008504300    0.0010988394
   0.0004012597    0.0001192600    0.0004035394
   0.0001981497    0.0007546800    0.0007587994
  -0.0000234603   -0.0000001100    0.0000692094
   0.0000708897   -0.0000570500   -0.0003422806
  -0.0000467603   -0.0000109200   -0.0002995006
  -0.0000279203    0.0000678900   -0.0003207006
   0.0000239097   -0.0000000100   -0.0001371906

1    
 -0.0104634444491546   0.0000000000000000  -0.0170445396024491
   0.0037392106   -0.0000246594    0.0059094191
  -0.0009410794   -0.0002379894    0.0005278791
   0.0001515906    0.0006300306    0.0006553391
  -0.0002624494   -0.0003922494    0.0004060591
  -0.0000313094    0.0000006806   -0.0003613109
   0.0000290206    0.0000575706   -0.0001122209
  -0.0000522994   -0.0000476894   -0.0001420609
   0.0000461506   -0.0000104594   -0.0000803009
   0.0005582106   -0.0003397594   -0.0001651909
  -0.0006017394   -0.0003279694   -0.0005747209
  -0.0000319494    0.0006683706   -0.0003690309
   0.0000387106   -0.0000008894   -0.0000513709
  -0.0003665894    0.0001950406   -0.0007288809
   0.0003177206    0.0002013506   -0.0000131709
  -0.0000286294   -0.0003951694   -0.0003717909
   0.0000355406   -0.0000003094   -0.0000526809
  -0.0003170194    0.0000006106   -0.0024282409
   0.0000896706    0.0000529806   -0.0001977409
  -0.0000429594   -0.0000772994   -0.0002603409
   0.0000476406    0.0000234206   -0.0001345509
  -0.0000646794    0.0000006406    0.0003037491
   0.0000685706   -0.0000140694    0.0000760591
   0.0000043006   -0.0000379194    0.0001734791
  -0.0000208394    0.0000513106   -0.0000218509
  -0.0017596594    0.0009057706   -0.0012015409
  -0.0004150094   -0.0001240494   -0.0004874109
  -0.0001956394   -0.0007565294   -0.0008381009
   0.0000248006   -0.0000007294   -0.0001556609
  -0.0000706394    0.0000569706    0.0002412891
   0.0000471006    0.0000110006    0.0001990791
   0.0000280306   -0.0000680294    0.0002207791
  -0.0000237794    0.0000000206    0.0000350391

17   
  0.0104634444491546   0.0000000000000000   0.0170445396024491
   0.0003123300    0.0000011400    0.0024378991
  -0.0000837200   -0.0001175100    0.0002084691
   0.0001001200    0.0001049900    0.0002368591
  -0.0001049400    0.0000118900    0.0001811591
   0.0000622900    0.0000004400   -0.0003059009
  -0.0000665700    0.0001827800   -0.0000825009
  -0.0001494600   -0.0000483400   -0.0000897509
   0.0001659800   -0.0001348000   -0.0000735409
   0.0004904800   -0.0001697700    0.0004407191
   0.0016855600    0.0008645700    0.0012555091
   0.0001923900   -0.0006696200    0.0008400591
  -0.0000203300    0.0000001400    0.0001581891
   0.0000481300   -0.0000457800   -0.0002613509
  -0.0000246100    0.0000057200   -0.0001927709
  -0.0000326700    0.0000411400   -0.0002278509
   0.0000285700   -0.0000009400   -0.0000434109
  -0.0036191100   -0.0000265100   -0.0060123909
   0.0006277200   -0.0000003300   -0.0002564409
   0.0001294700   -0.0002874400   -0.0002564409
   0.0001294200    0.0002879500   -0.0002552009
  -0.0000136700   -0.0000000700    0.0001424391
   0.0000231300   -0.0000063800    0.0001787791
   0.0000012900   -0.0000126400    0.0001816991
  -0.0000096300    0.0000189300    0.0001759191
   0.0001945200   -0.0001294100    0.0004170891
  -0.0000971100   -0.0000383100    0.0001470591
  -0.0000302600    0.0001683000    0.0002828091
  -0.0000043500   -0.0000003500   -0.0000392009
  -0.0001728100    0.0000818200    0.0001918891
   0.0002738300    0.0001761300    0.0003772791
  -0.0000310300   -0.0002577600    0.0002844291
  -0.0000049600    0.0000000200   -0.0000415009

17   
 -0.0104634444491546   0.0000000000000000  -0.0170445396024491
  -0.0003048603    0.0000000500   -0.0024899006
   0.0000910997    0.0001184900   -0.0001053906
  -0.0001004103   -0.0001105300   -0.0001341906
   0.0001053997   -0.0000078100   -0.0000775906
  -0.0000649703   -0.0000002700    0.0004020894
   0.0000689097   -0.0001828200    0.0001765494
   0.0001498597    0.0000468300    0.0001844094
  -0.0001663503    0.0001360600    0.0001692394
  -0.0004800103    0.0001644800   -0.0003558206
  -0.0015946303   -0.0008041500   -0.0011483306
  -0.0001988203    0.0006634900   -0.0007594706
   0.0000249997    0.0000005400   -0.0000687106
  -0.0000475603    0.0000421100    0.0003547894
   0.0000235197   -0.0000015700    0.0002814594
   0.0000263897   -0.0000405800    0.0003181694
  -0.0000221203    0.0000002300    0.0001338594
   0.0035023197   -0.0000255700    0.0060661294
  -0.0006259603    0.0000001500    0.0001610194
  -0.0001293103    0.0002870900    0.0001606794
  -0.0001283403   -0.0002870500    0.0001615394
   0.0000134697   -0.0000000200   -0.0002372806
  -0.0000228903    0.0000059300   -0.0002737706
  -0.0000010103    0.0000126900   -0.0002773806
   0.0000093497   -0.0000185900   -0.0002702006
  -0.0001992803    0.0001327800   -0.0005181206
   0.0000983797    0.0000393800   -0.0002423306
   0.0000304197   -0.0001716400   -0.0003795306
   0.0000053497   -0.0000000200   -0.0000537606
   0.0001721897   -0.0000825000   -0.0002869806
  -0.0002695203   -0.0001723000   -0.0004630506
   0.0000291297    0.0002551600   -0.0003753206
   0.0000052597   -0.0000000400   -0.0000528006
