
     Program PWSCF v.6.6 starts on 27Mar2023 at 16:28:34 

     This program is part of the open-source Quantum ESPRESSO suite
     for quantum simulation of materials; please cite
         "P. Giannozzi et al., J. Phys.:Condens. Matter 21 395502 (2009);
         "P. Giannozzi et al., J. Phys.:Condens. Matter 29 465901 (2017);
          URL http://www.quantum-espresso.org", 
     in publications or presentations arising from this work. More details at
     http://www.quantum-espresso.org/quote

     Serial version
     Fft bands division:     nmany     =       1
     Waiting for input...
     Reading input from standard input

     Current dimensions of program PWSCF are:
     Max number of different atomic species (ntypx) = 10
     Max number of k-points (npk) =  40000
     Max angular momentum in pseudopotentials (lmaxx) =  3

     G-vector sticks info
     --------------------
     sticks:   dense  smooth     PW     G-vecs:    dense   smooth      PW
     Sum         595     595    187                19411    19411    3213



     bravais-lattice index     =            4
     lattice parameter (alat)  =       6.0282  a.u.
     unit-cell volume          =     308.6570 (a.u.)^3
     number of atoms/cell      =            4
     number of atomic types    =            2
     number of electrons       =        36.00
     number of Kohn-Sham states=           18
     kinetic-energy cutoff     =      60.0000  Ry
     charge density cutoff     =     240.0000  Ry
     convergence threshold     =      1.0E-08
     mixing beta               =       0.7000
     number of iterations used =            8  plain     mixing
     Exchange-correlation= PBE
                           (   1   4   3   4   0   0   0)
     nstep                     =           50


     celldm(1)=   6.028226  celldm(2)=   0.000000  celldm(3)=   1.626960
     celldm(4)=   0.000000  celldm(5)=   0.000000  celldm(6)=   0.000000

     crystal axes: (cart. coord. in units of alat)
               a(1) = (   1.000000   0.000000   0.000000 )  
               a(2) = (  -0.500000   0.866025   0.000000 )  
               a(3) = (   0.000000   0.000000   1.626960 )  

     reciprocal axes: (cart. coord. in units 2 pi/alat)
               b(1) = (  1.000000  0.577350 -0.000000 )  
               b(2) = (  0.000000  1.154701  0.000000 )  
               b(3) = (  0.000000 -0.000000  0.614643 )  


     PseudoPot. # 1 for Ga read from file:
     ../pseudo/Ga_ONCV_PBE_sr.upf
     MD5 check sum: e3654b1fbeb096be7359f640ef9d98d7
     Pseudo is Norm-conserving + core correction, Zval = 13.0
     Generated using ONCVPSP code by D. R. Hamann
     Using radial grid of 1902 points,  6 beta functions with: 
                l(1) =   0
                l(2) =   0
                l(3) =   1
                l(4) =   1
                l(5) =   2
                l(6) =   2

     PseudoPot. # 2 for N  read from file:
     ../pseudo/N_ONCV_PBE_sr.upf
     MD5 check sum: 18c6af81dac9c5a2d6d52ed11cf7bfee
     Pseudo is Norm-conserving + core correction, Zval =  5.0
     Generated using ONCVPSP code by D. R. Hamann
     Using radial grid of 1058 points,  4 beta functions with: 
                l(1) =   0
                l(2) =   0
                l(3) =   1
                l(4) =   1

     atomic species   valence    mass     pseudopotential
        Ga            13.00    69.72300     Ga( 1.00)
        N              5.00    14.00700     N ( 1.00)

     12 Sym. Ops. (no inversion) found ( 6 have fractional translation)



   Cartesian axes

     site n.     atom                  positions (alat units)
         1           Ga  tau(   1) = (   0.5000000   0.2886751   0.8119892  )
         2           Ga  tau(   2) = (   0.0000000   0.5773503   1.6254692  )
         3           N   tau(   3) = (   0.5000000   0.2886751   1.4250808  )
         4           N   tau(   4) = (   0.0000000   0.5773503   0.6116008  )

     number of k points=    21
                       cart. coord. in units 2pi/alat
        k(    1) = (   0.0000000   0.0000000   0.0000000), wk =   0.0138889
        k(    2) = (   0.0000000   0.0000000   0.1536608), wk =   0.0277778
        k(    3) = (   0.0000000   0.0000000  -0.3073216), wk =   0.0138889
        k(    4) = (   0.0000000   0.1924501   0.0000000), wk =   0.0833333
        k(    5) = (   0.0000000   0.1924501   0.1536608), wk =   0.1666667
        k(    6) = (   0.0000000   0.1924501  -0.3073216), wk =   0.0833333
        k(    7) = (   0.0000000   0.3849002   0.0000000), wk =   0.0833333
        k(    8) = (   0.0000000   0.3849002   0.1536608), wk =   0.1666667
        k(    9) = (   0.0000000   0.3849002  -0.3073216), wk =   0.0833333
        k(   10) = (   0.0000000  -0.5773503   0.0000000), wk =   0.0416667
        k(   11) = (   0.0000000  -0.5773503   0.1536608), wk =   0.0833333
        k(   12) = (   0.0000000  -0.5773503  -0.3073216), wk =   0.0416667
        k(   13) = (   0.1666667   0.2886751   0.0000000), wk =   0.0833333
        k(   14) = (   0.1666667   0.2886751   0.1536608), wk =   0.1666667
        k(   15) = (   0.1666667   0.2886751  -0.3073216), wk =   0.0833333
        k(   16) = (   0.1666667   0.4811252   0.0000000), wk =   0.1666667
        k(   17) = (   0.1666667   0.4811252   0.1536608), wk =   0.3333333
        k(   18) = (   0.1666667   0.4811252  -0.3073216), wk =   0.1666667
        k(   19) = (   0.3333333   0.5773503   0.0000000), wk =   0.0277778
        k(   20) = (   0.3333333   0.5773503   0.1536608), wk =   0.0555556
        k(   21) = (   0.3333333   0.5773503  -0.3073216), wk =   0.0277778

     Dense  grid:    19411 G-vectors     FFT dimensions: (  30,  30,  50)

     Estimated max dynamical RAM per process >      36.02 MB

     Initial potential from superposition of free atoms

     starting charge   35.99464, renormalised to   36.00000
     Starting wfcs are   26 randomized atomic wfcs

     total cpu time spent up to now is        2.4 secs

     Self-consistent Calculation

     iteration #  1     ecut=    60.00 Ry     beta= 0.70
     Davidson diagonalization with overlap
     ethr =  1.00E-02,  avg # of iterations =  2.0

     total cpu time spent up to now is        4.9 secs

     total energy              =    -346.94337145 Ry
     estimated scf accuracy    <       1.03228390 Ry

     iteration #  2     ecut=    60.00 Ry     beta= 0.70
     Davidson diagonalization with overlap
     ethr =  2.87E-03,  avg # of iterations =  3.0

     total cpu time spent up to now is        6.4 secs

     total energy              =    -347.28053508 Ry
     estimated scf accuracy    <       0.86240829 Ry

     iteration #  3     ecut=    60.00 Ry     beta= 0.70
     Davidson diagonalization with overlap
     ethr =  2.40E-03,  avg # of iterations =  2.0

     negative rho (up, down):  1.565E-06 0.000E+00

     total cpu time spent up to now is        7.8 secs

     total energy              =    -347.39054147 Ry
     estimated scf accuracy    <       0.02580202 Ry

     iteration #  4     ecut=    60.00 Ry     beta= 0.70
     Davidson diagonalization with overlap
     ethr =  7.17E-05,  avg # of iterations =  5.0

     total cpu time spent up to now is        9.6 secs

     total energy              =    -347.41345319 Ry
     estimated scf accuracy    <       0.07390636 Ry

     iteration #  5     ecut=    60.00 Ry     beta= 0.70
     Davidson diagonalization with overlap
     ethr =  7.17E-05,  avg # of iterations =  2.9

     total cpu time spent up to now is       10.9 secs

     total energy              =    -347.41725412 Ry
     estimated scf accuracy    <       0.00978676 Ry

     iteration #  6     ecut=    60.00 Ry     beta= 0.70
     Davidson diagonalization with overlap
     ethr =  2.72E-05,  avg # of iterations =  2.5

     total cpu time spent up to now is       12.1 secs

     total energy              =    -347.41657402 Ry
     estimated scf accuracy    <       0.00208160 Ry

     iteration #  7     ecut=    60.00 Ry     beta= 0.70
     Davidson diagonalization with overlap
     ethr =  5.78E-06,  avg # of iterations =  4.0

     total cpu time spent up to now is       13.7 secs

     total energy              =    -347.41763134 Ry
     estimated scf accuracy    <       0.00344204 Ry

     iteration #  8     ecut=    60.00 Ry     beta= 0.70
     Davidson diagonalization with overlap
     ethr =  5.78E-06,  avg # of iterations =  2.0

     total cpu time spent up to now is       14.9 secs

     total energy              =    -347.41781671 Ry
     estimated scf accuracy    <       0.00044732 Ry

     iteration #  9     ecut=    60.00 Ry     beta= 0.70
     Davidson diagonalization with overlap
     ethr =  1.24E-06,  avg # of iterations =  4.0

     total cpu time spent up to now is       16.2 secs

     total energy              =    -347.41787708 Ry
     estimated scf accuracy    <       0.00005206 Ry

     iteration # 10     ecut=    60.00 Ry     beta= 0.70
     Davidson diagonalization with overlap
     ethr =  1.45E-07,  avg # of iterations =  2.2

     total cpu time spent up to now is       17.4 secs

     total energy              =    -347.41787059 Ry
     estimated scf accuracy    <       0.00002563 Ry

     iteration # 11     ecut=    60.00 Ry     beta= 0.70
     Davidson diagonalization with overlap
     ethr =  7.12E-08,  avg # of iterations =  2.3

     total cpu time spent up to now is       18.7 secs

     total energy              =    -347.41787463 Ry
     estimated scf accuracy    <       0.00000107 Ry

     iteration # 12     ecut=    60.00 Ry     beta= 0.70
     Davidson diagonalization with overlap
     ethr =  2.96E-09,  avg # of iterations =  4.0

     total cpu time spent up to now is       20.1 secs

     total energy              =    -347.41787494 Ry
     estimated scf accuracy    <       0.00000006 Ry

     iteration # 13     ecut=    60.00 Ry     beta= 0.70
     Davidson diagonalization with overlap
     ethr =  1.76E-10,  avg # of iterations =  3.3

     total cpu time spent up to now is       21.4 secs

     total energy              =    -347.41787494 Ry
     estimated scf accuracy    <       0.00000002 Ry

     iteration # 14     ecut=    60.00 Ry     beta= 0.70
     Davidson diagonalization with overlap
     ethr =  5.31E-11,  avg # of iterations =  3.5

     total cpu time spent up to now is       22.8 secs

     End of self-consistent calculation

          k = 0.0000 0.0000 0.0000 (  2431 PWs)   bands (ev):

    -5.3225  -4.4869  -3.0090  -2.9783  -2.9783  -2.9343  -2.9343  -2.7432
    -2.7432  -2.6457  -2.6457  -1.3105   3.6019   9.5980   9.5980  10.5905
    10.6303  10.6303

          k = 0.0000 0.0000 0.1537 (  2436 PWs)   bands (ev):

    -5.1525  -4.5488  -2.9850  -2.9850  -2.9511  -2.9511  -2.9363  -2.7348
    -2.7348  -2.6515  -2.6515  -1.8743   4.6420   9.0983   9.7406   9.7406
    10.4692  10.4692

          k = 0.0000 0.0000-0.3073 (  2424 PWs)   bands (ev):

    -4.7906  -4.7906  -2.9691  -2.9691  -2.9691  -2.9691  -2.6839  -2.6839
    -2.6839  -2.6839  -2.6187  -2.6187   6.8010   6.8010  10.0986  10.0986
    10.0986  10.0986

          k = 0.0000 0.1925 0.0000 (  2425 PWs)   bands (ev):

    -5.0780  -4.4340  -2.9683  -2.9531  -2.9055  -2.8749  -2.8728  -2.7712
    -2.7439  -2.6800  -2.6345  -1.1272   3.9863   7.9174   8.9056   9.0895
    10.3124  10.3892

          k = 0.0000 0.1925 0.1537 (  2429 PWs)   bands (ev):

    -4.9339  -4.4757  -2.9614  -2.9477  -2.9185  -2.8906  -2.8401  -2.7299
    -2.7218  -2.6773  -2.6517  -1.6487   4.8840   8.0346   8.3628   9.2647
     9.9329  10.1792

          k = 0.0000 0.1925-0.3073 (  2442 PWs)   bands (ev):

    -4.6481  -4.6481  -2.9435  -2.9435  -2.9248  -2.9248  -2.7652  -2.7652
    -2.6934  -2.6934  -2.3808  -2.3808   6.6305   6.6305   8.9965   8.9965
     9.7046   9.7046

          k = 0.0000 0.3849 0.0000 (  2427 PWs)   bands (ev):

    -4.6522  -4.3674  -2.9352  -2.9155  -2.8399  -2.7832  -2.7825  -2.7390
    -2.6991  -2.6333  -2.2824  -0.7617   4.6982   5.7674   6.7297   8.2576
     9.3782   9.8825

          k = 0.0000 0.3849 0.1537 (  2429 PWs)   bands (ev):

    -4.5747  -4.3756  -2.9424  -2.8940  -2.8735  -2.7999  -2.7806  -2.7286
    -2.6913  -2.6453  -2.1591  -1.1202   4.6993   5.9407   6.9643   8.4682
     9.4693   9.6119

          k = 0.0000 0.3849-0.3073 (  2428 PWs)   bands (ev):

    -4.4387  -4.4387  -2.9288  -2.9288  -2.8460  -2.8460  -2.7459  -2.7459
    -2.6722  -2.6722  -1.7483  -1.7483   5.1710   5.1710   8.5616   8.5616
     9.0091   9.0091

          k = 0.0000-0.5774 0.0000 (  2420 PWs)   bands (ev):

    -4.4991  -4.3523  -2.9444  -2.9101  -2.8262  -2.7879  -2.7315  -2.7162
    -2.6508  -2.6232  -1.4363  -0.8786   4.1923   5.3537   6.4459   7.8966
     8.4396   9.6370

          k = 0.0000-0.5774 0.1537 (  2420 PWs)   bands (ev):

    -4.4512  -4.3479  -2.9517  -2.8847  -2.8659  -2.7815  -2.7580  -2.6845
    -2.6552  -2.6352  -1.3765  -0.9782   3.9324   4.7717   7.3571   8.1188
     8.9572   9.3405

          k = 0.0000-0.5774-0.3073 (  2432 PWs)   bands (ev):

    -4.3752  -4.3752  -2.9455  -2.9455  -2.8278  -2.8278  -2.7063  -2.7063
    -2.6526  -2.6526  -1.2006  -1.2006   4.0478   4.0478   8.6922   8.6922
     8.7489   8.7489

          k = 0.1667 0.2887 0.0000 (  2431 PWs)   bands (ev):

    -4.7443  -4.3779  -2.9433  -2.9188  -2.8564  -2.8308  -2.7839  -2.7192
    -2.7186  -2.6615  -2.4819  -0.8294   4.6176   6.5951   6.9649   8.2333
     9.6084   9.7406

          k = 0.1667 0.2887 0.1537 (  2427 PWs)   bands (ev):

    -4.6496  -4.3937  -2.9211  -2.9190  -2.8654  -2.8557  -2.7663  -2.7576
    -2.6892  -2.6710  -2.3602  -1.2533   5.0217   6.6299   7.2199   8.2017
     9.3075   9.7214

          k = 0.1667 0.2887-0.3073 (  2428 PWs)   bands (ev):

    -4.4791  -4.4791  -2.9043  -2.9043  -2.8795  -2.8795  -2.7768  -2.7768
    -2.6768  -2.6768  -1.9424  -1.9424   5.8100   5.8100   8.5220   8.5220
     8.8337   8.8337

          k = 0.1667 0.4811 0.0000 (  2417 PWs)   bands (ev):

    -4.4856  -4.3523  -2.9648  -2.8825  -2.7927  -2.7815  -2.7571  -2.7391
    -2.6774  -2.6455  -1.5997  -0.6722   4.6336   5.5813   6.4620   7.0203
     8.6438   8.8563

          k = 0.1667 0.4811 0.1537 (  2416 PWs)   bands (ev):

    -4.4406  -4.3463  -2.9347  -2.8972  -2.8450  -2.7805  -2.7569  -2.7156
    -2.6707  -2.6617  -1.5027  -0.8438   4.3748   5.1494   6.8908   7.6645
     8.4256   9.1543

          k = 0.1667 0.4811-0.3073 (  2410 PWs)   bands (ev):

    -4.3665  -4.3665  -2.9057  -2.9057  -2.8348  -2.8348  -2.7344  -2.7344
    -2.6627  -2.6627  -1.2119  -1.2119   4.5005   4.5005   7.5880   7.5880
     8.9918   8.9918

          k = 0.3333 0.5774 0.0000 (  2424 PWs)   bands (ev):

    -4.3800  -4.3800  -3.0010  -2.7870  -2.7870  -2.7691  -2.7615  -2.7615
    -2.7148  -2.6694  -0.8872  -0.8872   5.2999   5.2999   5.3732   7.6656
     7.6656   7.9198

          k = 0.3333 0.5774 0.1537 (  2412 PWs)   bands (ev):

    -4.3579  -4.3579  -2.9580  -2.8388  -2.8388  -2.7735  -2.7188  -2.7091
    -2.7091  -2.6951  -0.8807  -0.8807   4.8227   4.8227   5.6681   7.4244
     8.4589   8.4589

          k = 0.3333 0.5774-0.3073 (  2400 PWs)   bands (ev):

    -4.3342  -4.3342  -2.8656  -2.8656  -2.8477  -2.8477  -2.7219  -2.7219
    -2.6901  -2.6901  -0.8726  -0.8726   4.4834   4.4834   6.4568   6.4568
     9.1698   9.1698

     highest occupied level (ev):    10.6303

!    total energy              =    -347.41787495 Ry
     estimated scf accuracy    <          2.4E-11 Ry

     The total energy is the sum of the following terms:
     one-electron contribution =    -105.47341591 Ry
     hartree contribution      =      87.43756467 Ry
     xc contribution           =     -96.22519679 Ry
     ewald contribution        =    -233.15682692 Ry

     convergence has been achieved in  14 iterations

     Forces acting on atoms (cartesian axes, Ry/au):

     atom    1 type  1   force =     0.00000000    0.00000000    0.00001799
     atom    2 type  1   force =     0.00000000   -0.00000000    0.00001799
     atom    3 type  2   force =     0.00000000    0.00000000   -0.00001799
     atom    4 type  2   force =    -0.00000000   -0.00000000   -0.00001799

     Total force =     0.000036     Total SCF correction =     0.000018
     SCF correction compared to forces is large: reduce conv_thr to get better values


     Computing stress (Cartesian axis) and pressure

          total   stress  (Ry/bohr**3)                   (kbar)     P=     -433.69
  -0.00295673  -0.00000000   0.00000000         -434.95       -0.00        0.00
  -0.00000000  -0.00295673   0.00000000           -0.00     -434.95        0.00
   0.00000000   0.00000000  -0.00293106            0.00        0.00     -431.17


     BFGS Geometry Optimization

     number of scf cycles    =   1
     number of bfgs steps    =   0

     enthalpy new            =    -347.4178749452 Ry

     new trust radius        =       0.2597285950 bohr
     new conv_thr            =       0.0000000100 Ry

     new unit-cell volume =    245.31547 a.u.^3 (    36.35200 Ang^3 )
     density =      7.64948 g/cm^3

CELL_PARAMETERS (alat=  6.02822635)
   0.926081747   0.000000000   0.000000000
  -0.463040873   0.802010319   0.000000000
   0.000000000   0.000000000   1.507741882

ATOMIC_POSITIONS (crystal)
Ga            0.6666666667        0.3333333333        0.4990855448
Ga            0.3333333333        0.6666666667        0.9990855448
N             0.6666666667        0.3333333333        0.8759144552
N             0.3333333333        0.6666666667        0.3759144552



     Writing output data file ../tmp/GaN_exc1.save/
     NEW-OLD atomic charge density approx. for the potential
     extrapolated charge   26.70602, renormalised to   36.00000

     total cpu time spent up to now is       27.8 secs

     Self-consistent Calculation

     iteration #  1     ecut=    60.00 Ry     beta= 0.70
     Davidson diagonalization with overlap
     ethr =  1.00E-06,  avg # of iterations =  9.6

     total cpu time spent up to now is       31.6 secs

     total energy              =    -343.05065876 Ry
     estimated scf accuracy    <       3.23591586 Ry

     iteration #  2     ecut=    60.00 Ry     beta= 0.70
