mesh: [     9,     9,     5 ]
nqpoint: 405    
reciprocal_lattice:
- [   0.16438123,   0.09490554,   0.00000000 ] # a*
- [   0.00000000,   0.18981109,   0.00000000 ] # b*
- [   0.00000000,   0.00000000,   0.10091172 ] # c*
natom:   4      
lattice:
- [     6.083419775700261,     0.000000000000000,     0.000000000000000 ] # a
- [    -3.041709887850131,     5.268396068308857,     0.000000000000000 ] # b
- [     0.000000000000000,     0.000000000000000,     9.909651624673431 ] # c
points:
- symbol: Ga # 1
  coordinates: [  0.666666666700000,  0.333333333300000,  0.499121070200000 ]
  mass: 69.723000
- symbol: Ga # 2
  coordinates: [  0.333333333300000,  0.666666666700000,  0.999121070200000 ]
  mass: 69.723000
- symbol: N  # 3
  coordinates: [  0.666666666700000,  0.333333333300000,  0.875878929800000 ]
  mass: 14.006700
- symbol: N  # 4
  coordinates: [  0.333333333300000,  0.666666666700000,  0.375878929800000 ]
  mass: 14.006700

phonon:
- q-position: [    0.0000000,    0.0000000,    0.0000000 ]
  distance_from_gamma:  0.000000000
  weight: 1    
  band:
  - # 1
    frequency:    -0.0053867521
    eigenvector:
    - # atom 1
      - [  0.00000000014525,  0.00000000000000 ]
      - [ -0.00000000146421,  0.00000000000000 ]
      - [  0.64536118364318,  0.00000000000000 ]
    - # atom 2
      - [  0.00000000014525,  0.00000000000000 ]
      - [ -0.00000000146420,  0.00000000000000 ]
      - [  0.64536118364318,  0.00000000000000 ]
    - # atom 3
      - [  0.00000000006511,  0.00000000000000 ]
      - [ -0.00000000065631,  0.00000000000000 ]
      - [  0.28897913877419,  0.00000000000000 ]
    - # atom 4
      - [  0.00000000006511,  0.00000000000000 ]
      - [ -0.00000000065631,  0.00000000000000 ]
      - [  0.28897913877419,  0.00000000000000 ]
  - # 2
    frequency:    -0.0023602512
    eigenvector:
    - # atom 1
      - [  0.60415440962624,  0.00000000000000 ]
      - [  0.22659639675472,  0.00000000000000 ]
      - [  0.00000000037826,  0.00000000000000 ]
    - # atom 2
      - [  0.60415440958123,  0.00000000000000 ]
      - [  0.22659639680944,  0.00000000000000 ]
      - [  0.00000000037826,  0.00000000000000 ]
    - # atom 3
      - [  0.27080481598416,  0.00000000000000 ]
      - [  0.10156906007489,  0.00000000000000 ]
      - [  0.00000000016938,  0.00000000000000 ]
    - # atom 4
      - [  0.27080481596399,  0.00000000000000 ]
      - [  0.10156906009941,  0.00000000000000 ]
      - [  0.00000000016938,  0.00000000000000 ]
  - # 3
    frequency:    -0.0023602512
    eigenvector:
    - # atom 1
      - [  0.22659639680944, -0.00000000000000 ]
      - [ -0.60415440958123,  0.00000000000000 ]
      - [ -0.00000000142220,  0.00000000000000 ]
    - # atom 2
      - [  0.22659639675472,  0.00000000000000 ]
      - [ -0.60415440962624,  0.00000000000000 ]
      - [ -0.00000000142220,  0.00000000000000 ]
    - # atom 3
      - [  0.10156906009941,  0.00000000000000 ]
      - [ -0.27080481596399,  0.00000000000000 ]
      - [ -0.00000000063683,  0.00000000000000 ]
    - # atom 4
      - [  0.10156906007489,  0.00000000000000 ]
      - [ -0.27080481598416,  0.00000000000000 ]
      - [ -0.00000000063683,  0.00000000000000 ]
  - # 4
    frequency:     4.0854949795
    eigenvector:
    - # atom 1
      - [ -0.17216238401583,  0.00000000000000 ]
      - [ -0.64251980652446,  0.00000000000000 ]
      - [ -0.00000000000000,  0.00000000000000 ]
    - # atom 2
      - [  0.17216238400916,  0.00000000000000 ]
      - [  0.64251980649957,  0.00000000000000 ]
      - [ -0.00000000000000,  0.00000000000000 ]
    - # atom 3
      - [  0.06207786403513,  0.00000000000000 ]
      - [  0.23167811840731,  0.00000000000000 ]
      - [ -0.00000000000000,  0.00000000000000 ]
    - # atom 4
      - [ -0.06207786405561,  0.00000000000000 ]
      - [ -0.23167811848375,  0.00000000000000 ]
      - [ -0.00000000000000,  0.00000000000000 ]
  - # 5
    frequency:     4.0854949800
    eigenvector:
    - # atom 1
      - [ -0.64251980649957,  0.00000000000000 ]
      - [  0.17216238400916,  0.00000000000000 ]
      - [ -0.00000000000000,  0.00000000000000 ]
    - # atom 2
      - [  0.64251980652446,  0.00000000000000 ]
      - [ -0.17216238401583,  0.00000000000000 ]
      - [  0.00000000000000,  0.00000000000000 ]
    - # atom 3
      - [  0.23167811848375,  0.00000000000000 ]
      - [ -0.06207786405561,  0.00000000000000 ]
      - [ -0.00000000000000,  0.00000000000000 ]
    - # atom 4
      - [ -0.23167811840731,  0.00000000000000 ]
      - [  0.06207786403513,  0.00000000000000 ]
      - [ -0.00000000000000,  0.00000000000000 ]
  - # 6
    frequency:     9.5596858901
    eigenvector:
    - # atom 1
      - [ -0.00000000000000,  0.00000000000000 ]
      - [ -0.00000000000000,  0.00000000000000 ]
      - [  0.70643048997537,  0.00000000000000 ]
    - # atom 2
      - [  0.00000000000000,  0.00000000000000 ]
      - [ -0.00000000000000,  0.00000000000000 ]
      - [ -0.70643048997537,  0.00000000000000 ]
    - # atom 3
      - [ -0.00000000000000,  0.00000000000000 ]
      - [ -0.00000000000000,  0.00000000000000 ]
      - [  0.03091864863090,  0.00000000000000 ]
    - # atom 4
      - [ -0.00000000000000,  0.00000000000000 ]
      - [  0.00000000000000,  0.00000000000000 ]
      - [ -0.03091864863090,  0.00000000000000 ]
  - # 7
    frequency:    15.0640341939
    eigenvector:
    - # atom 1
      - [  0.00000000000000,  0.00000000000000 ]
      - [ -0.00000000000000,  0.00000000000000 ]
      - [  0.28897913877419,  0.00000000000000 ]
    - # atom 2
      - [  0.00000000000000,  0.00000000000000 ]
      - [ -0.00000000000000,  0.00000000000000 ]
      - [  0.28897913877419,  0.00000000000000 ]
    - # atom 3
      - [ -0.00000000000000,  0.00000000000000 ]
      - [  0.00000000000000,  0.00000000000000 ]
      - [ -0.64536118364318,  0.00000000000000 ]
    - # atom 4
      - [ -0.00000000000000,  0.00000000000000 ]
      - [  0.00000000000000,  0.00000000000000 ]
      - [ -0.64536118364318,  0.00000000000000 ]
  - # 8
    frequency:    15.7411919670
    eigenvector:
    - # atom 1
      - [ -0.07485712710052,  0.00000000000000 ]
      - [ -0.27937060202510,  0.00000000000000 ]
      - [ -0.00000000000000,  0.00000000000000 ]
    - # atom 2
      - [ -0.07485712671405,  0.00000000000000 ]
      - [ -0.27937060058279,  0.00000000000000 ]
      - [ -0.00000000000000,  0.00000000000000 ]
    - # atom 3
      - [  0.16700317167504,  0.00000000000000 ]
      - [  0.62326432255826,  0.00000000000000 ]
      - [  0.00000000000000,  0.00000000000000 ]
    - # atom 4
      - [  0.16700317269979,  0.00000000000000 ]
      - [  0.62326432638263,  0.00000000000000 ]
      - [  0.00000000000000,  0.00000000000000 ]
  - # 9
    frequency:    15.7411919687
    eigenvector:
    - # atom 1
      - [ -0.27937060058278,  0.00000000000000 ]
      - [  0.07485712671405,  0.00000000000000 ]
      - [  0.00000000000000,  0.00000000000000 ]
    - # atom 2
      - [ -0.27937060202510,  0.00000000000000 ]
      - [  0.07485712710052,  0.00000000000000 ]
      - [  0.00000000000000,  0.00000000000000 ]
    - # atom 3
      - [  0.62326432638264,  0.00000000000000 ]
      - [ -0.16700317269979,  0.00000000000000 ]
      - [ -0.00000000000000,  0.00000000000000 ]
    - # atom 4
      - [  0.62326432255825,  0.00000000000000 ]
      - [ -0.16700317167504,  0.00000000000000 ]
      - [ -0.00000000000000,  0.00000000000000 ]
  - # 10
    frequency:    15.9504164387
    eigenvector:
    - # atom 1
      - [ -0.06207808614658,  0.00000000000000 ]
      - [ -0.23167805806330,  0.00000000000000 ]
      - [ -0.00000000000000,  0.00000000000000 ]
    - # atom 2
      - [  0.06207808658177,  0.00000000000000 ]
      - [  0.23167805968744,  0.00000000000000 ]
      - [ -0.00000000000000,  0.00000000000000 ]
    - # atom 3
      - [ -0.17216300107834,  0.00000000000000 ]
      - [ -0.64251964317965,  0.00000000000000 ]
      - [  0.00000000000000,  0.00000000000000 ]
    - # atom 4
      - [  0.17216300007335,  0.00000000000000 ]
      - [  0.64251963942898,  0.00000000000000 ]
      - [  0.00000000000000,  0.00000000000000 ]
  - # 11
    frequency:    15.9504164404
    eigenvector:
    - # atom 1
      - [  0.23167805968744,  0.00000000000000 ]
      - [ -0.06207808658177,  0.00000000000000 ]
      - [  0.00000000000000,  0.00000000000000 ]
    - # atom 2
      - [ -0.23167805806329,  0.00000000000000 ]
      - [  0.06207808614658,  0.00000000000000 ]
      - [ -0.00000000000000,  0.00000000000000 ]
    - # atom 3
      - [  0.64251963942898,  0.00000000000000 ]
      - [ -0.17216300007335,  0.00000000000000 ]
      - [  0.00000000000000,  0.00000000000000 ]
    - # atom 4
      - [ -0.64251964317965,  0.00000000000000 ]
      - [  0.17216300107834,  0.00000000000000 ]
      - [ -0.00000000000000,  0.00000000000000 ]
  - # 12
    frequency:    19.7012267586
    eigenvector:
    - # atom 1
      - [  0.00000000000000,  0.00000000000000 ]
      - [  0.00000000000000,  0.00000000000000 ]
      - [  0.03091864863090,  0.00000000000000 ]
    - # atom 2
      - [  0.00000000000000,  0.00000000000000 ]
      - [  0.00000000000000,  0.00000000000000 ]
      - [ -0.03091864863090,  0.00000000000000 ]
    - # atom 3
      - [  0.00000000000000,  0.00000000000000 ]
      - [ -0.00000000000000,  0.00000000000000 ]
      - [ -0.70643048997537,  0.00000000000000 ]
    - # atom 4
      - [ -0.00000000000000,  0.00000000000000 ]
      - [  0.00000000000000,  0.00000000000000 ]
      - [  0.70643048997537,  0.00000000000000 ]

- q-position: [    0.1111111,    0.0000000,    0.0000000 ]
  distance_from_gamma:  0.021090121
  weight: 1    
  band:
  - # 1
    frequency:     1.3875572011
    eigenvector:
    - # atom 1
      - [ -0.32381795952651,  0.00000000000000 ]
      - [  0.56086915830978,  0.00000000080901 ]
      - [ -0.00000000087143,  0.00000000007138 ]
    - # atom 2
      - [ -0.32248868701637, -0.02931070753067 ]
      - [  0.55856679100535,  0.05076763547306 ]
      - [ -0.00000000087129,  0.00000000008064 ]
    - # atom 3
      - [ -0.14122711772776,  0.01402962264234 ]
      - [  0.24461254328012, -0.02430001896750 ]
      - [ -0.00000000039475,  0.00000000003514 ]
    - # atom 4
      - [ -0.13937747507725, -0.02675534540280 ]
      - [  0.24140886837649,  0.04634161787871 ]
      - [ -0.00000000039449,  0.00000000003210 ]
  - # 2
    frequency:     1.4516652438
    eigenvector:
    - # atom 1
      - [  0.10216158049908,  0.00000000000000 ]
      - [  0.05898301583790,  0.00000000107308 ]
      - [ -0.00897783995039,  0.63870346131472 ]
    - # atom 2
      - [  0.10212686737775,  0.00266298446806 ]
      - [  0.05896297421872,  0.00153747585905 ]
      - [ -0.00767391532477,  0.63872045851778 ]
    - # atom 3
      - [  0.01248691235067,  0.00456163544165 ]
      - [  0.00720932222098,  0.00263366191961 ]
      - [ -0.00361843920522,  0.27894904033674 ]
    - # atom 4
      - [  0.01260157499365, -0.00423459690974 ]
      - [  0.00727552255840, -0.00244484521842 ]
      - [ -0.00365398966272,  0.27894857692165 ]
  - # 3
    frequency:     2.9623169552
    eigenvector:
    - # atom 1
      - [ -0.55556007019454,  0.00000000000000 ]
      - [ -0.32075275594086, -0.00000000030919 ]
      - [  0.01073637160275,  0.11767649057952 ]
    - # atom 2
      - [ -0.55326999170158,  0.05039154496757 ]
      - [ -0.31943057868367,  0.02909357177034 ]
      - [ -0.00001838161488,  0.11816524773562 ]
    - # atom 3
      - [ -0.23489614223512, -0.02296769783084 ]
      - [ -0.13561735094945, -0.01326040664502 ]
      - [  0.00258567009059,  0.01514427674503 ]
    - # atom 4
      - [ -0.23184461200751,  0.04417905248501 ]
      - [ -0.13385554910928,  0.02550678773964 ]
      - [ -0.00120136454506,  0.01531638113842 ]
  - # 4
    frequency:     4.3146428466
    eigenvector:
    - # atom 1
      - [  0.33393563655734,  0.00000000000000 ]
      - [ -0.57839348951845, -0.00000000042034 ]
      - [ -0.00000000001984, -0.00000000001783 ]
    - # atom 2
      - [ -0.33261791154805, -0.02963670607890 ]
      - [  0.57611112258969,  0.05133228106117 ]
      - [  0.00000000001784, -0.00000000004866 ]
    - # atom 3
      - [ -0.11561987300929,  0.01091033670255 ]
      - [  0.20025949441136, -0.01889725737168 ]
      - [ -0.00000000000549, -0.00000000001455 ]
    - # atom 4
      - [  0.11419534191589,  0.02112851947663 ]
      - [ -0.19779213446007, -0.03659566934600 ]
      - [  0.00000000000476, -0.00000000002384 ]
  - # 5
    frequency:     5.1186265416
    eigenvector:
    - # atom 1
      - [  0.57997343360104,  0.00000000000000 ]
      - [  0.33484781781464,  0.00000000023681 ]
      - [  0.00307888952531, -0.06849843882455 ]
    - # atom 2
      - [ -0.57787961388728,  0.04923754242777 ]
      - [ -0.33363895036142,  0.02842730815762 ]
      - [  0.00888303147427,  0.06798975977261 ]
    - # atom 3
      - [ -0.18568882237855, -0.01846659022586 ]
      - [ -0.10720749146344, -0.01066169093295 ]
      - [  0.00366645779225, -0.01908730040125 ]
    - # atom 4
      - [  0.18345070527791, -0.03416419813590 ]
      - [  0.10591531403204, -0.01972470893573 ]
      - [  0.00527366047435,  0.01870712309660 ]
  - # 6
    frequency:     9.3740843817
    eigenvector:
    - # atom 1
      - [  0.06865801691006,  0.00000000000000 ]
      - [  0.03963972454990, -0.00000000000243 ]
      - [  0.07700629742533,  0.69736555498947 ]
    - # atom 2
      - [ -0.06705236443789,  0.01476156192342 ]
      - [ -0.03871270064416,  0.00852259174891 ]
      - [ -0.07472908097019, -0.69761325359133 ]
    - # atom 3
      - [  0.01782579973892,  0.00223385141076 ]
      - [  0.01029173028361,  0.00128971471104 ]
      - [  0.00316207614456,  0.03202734444792 ]
    - # atom 4
      - [ -0.01692864047997,  0.00601417990353 ]
      - [ -0.00977375514692,  0.00347228838662 ]
      - [ -0.00379779314999, -0.03195819589901 ]
  - # 7
    frequency:    15.1700984188
    eigenvector:
    - # atom 1
      - [  0.05575295086814, -0.00000000000000 ]
      - [  0.03218898127045, -0.00000000003182 ]
      - [  0.01019176118215,  0.27164666532365 ]
    - # atom 2
      - [  0.05560492924592, -0.00405997250588 ]
      - [  0.03210352089027, -0.00234402623488 ]
      - [  0.00961681543164,  0.27166762714465 ]
    - # atom 3
      - [ -0.05956355420276, -0.01252123835342 ]
      - [ -0.03438903409611, -0.00722914029479 ]
      - [ -0.02558331928658, -0.64526407339667 ]
    - # atom 4
      - [ -0.05849360934961,  0.01682545855673 ]
      - [ -0.03377130130365,  0.00971418305893 ]
      - [ -0.02147322665221, -0.64541392236248 ]
  - # 8
    frequency:    15.7687769112
    eigenvector:
    - # atom 1
      - [  0.14042241191302,  0.00000000000000 ]
      - [ -0.24321875345127, -0.00000000057928 ]
      - [ -0.00000000007619,  0.00000000022221 ]
    - # atom 2
      - [  0.13142155323834, -0.04946543501984 ]
      - [ -0.22762880781778,  0.08567664636314 ]
      - [ -0.00000000005672,  0.00000000010504 ]
    - # atom 3
      - [ -0.26795845551220,  0.18297489484201 ]
      - [  0.46411765988848, -0.31692181363682 ]
      - [  0.00000000009081, -0.00000000018611 ]
    - # atom 4
      - [ -0.31523777552196, -0.07685499179406 ]
      - [  0.54600784779434,  0.13311675127284 ]
      - [  0.00000000009666, -0.00000000027789 ]
  - # 9
    frequency:    16.1263731466
    eigenvector:
    - # atom 1
      - [  0.11794262844041,  0.00000000000000 ]
      - [ -0.20428264454767, -0.00000000996850 ]
      - [ -0.00000000123381,  0.00000000235123 ]
    - # atom 2
      - [ -0.10012652818447,  0.06233092097839 ]
      - [  0.17342422576682, -0.10796034006851 ]
      - [ -0.00000000216822,  0.00000000107270 ]
    - # atom 3
      - [  0.25864346966669, -0.21022150777666 ]
      - [ -0.44798362409685,  0.36411438222229 ]
      - [  0.00000000241773, -0.00000000130359 ]
    - # atom 4
      - [ -0.33067237261309, -0.04177678755909 ]
      - [  0.57274140589574,  0.07235952955499 ]
      - [  0.00000000144292, -0.00000000257589 ]
  - # 10
    frequency:    16.1459236666
    eigenvector:
    - # atom 1
      - [  0.22161528057940,  0.00000000000000 ]
      - [  0.12794963146757,  0.00000000547290 ]
      - [  0.00118069468022, -0.06139660504304 ]
    - # atom 2
      - [  0.17696113277235,  0.13340947631613 ]
      - [  0.10216856271111,  0.07702398775384 ]
      - [  0.03601715489970, -0.04973632177464 ]
    - # atom 3
      - [ -0.33865704157637, -0.45261695286305 ]
      - [ -0.19552374545224, -0.26131849161600 ]
      - [ -0.03883708367108,  0.05629134993745 ]
    - # atom 4
      - [ -0.54288913656533,  0.15755028317031 ]
      - [ -0.31343715814715,  0.09096168693123 ]
      - [ -0.00287500508699,  0.06832839447554 ]
  - # 11
    frequency:    16.4054456331
    eigenvector:
    - # atom 1
      - [  0.19258569819746,  0.00000000000000 ]
      - [  0.11118940363885,  0.00000000015412 ]
      - [ -0.00472614352983, -0.04541015135347 ]
    - # atom 2
      - [ -0.10313972136197, -0.16263901398027 ]
      - [ -0.05954774558395, -0.09389967857526 ]
      - [ -0.04088006254969,  0.02032827500167 ]
    - # atom 3
      - [  0.27234195878707,  0.51069997781775 ]
      - [  0.15723670219928,  0.29485277016178 ]
      - [  0.03811977878107, -0.01907834127243 ]
    - # atom 4
      - [ -0.57714054625087,  0.04351322990444 ]
      - [ -0.33321224679966,  0.02512237506389 ]
      - [  0.00430343867761,  0.04240968115386 ]
  - # 12
    frequency:    19.5914839300
    eigenvector:
    - # atom 1
      - [ -0.02284600607557,  0.00000000000000 ]
      - [ -0.01319014775052, -0.00000000000123 ]
      - [  0.00484011652656,  0.03590951180788 ]
    - # atom 2
      - [  0.02205401853469, -0.00596324240554 ]
      - [  0.01273289353504, -0.00344287960802 ]
      - [ -0.00470073866010, -0.03592802280005 ]
    - # atom 3
      - [ -0.02710992708146,  0.00077860026715 ]
      - [ -0.01565192369235,  0.00044952507283 ]
      - [ -0.09430631454885, -0.69865351936840 ]
    - # atom 4
      - [  0.02637335447704, -0.00632459790129 ]
      - [  0.01522666329036, -0.00365150829901 ]
      - [  0.09132480651446,  0.69904949810778 ]

- q-position: [    0.2222222,    0.0000000,    0.0000000 ]
  distance_from_gamma:  0.042180242
  weight: 1    
  band:
  - # 1
    frequency:     2.5996247977
    eigenvector:
    - # atom 1
      - [ -0.32679852756792,  0.00000000000000 ]
      - [  0.56603165353472,  0.00000000022834 ]
      - [  0.00000000001533,  0.00000000002803 ]
    - # atom 2
      - [ -0.31659257820434, -0.08103343105458 ]
      - [  0.54835443098087,  0.14035401998131 ]
      - [  0.00000000001510,  0.00000000004007 ]
    - # atom 3
      - [ -0.13350009286606,  0.01950506611992 ]
      - [  0.23122894362733, -0.03378376541451 ]
      - [ -0.00000000000977,  0.00000000001654 ]
    - # atom 4
      - [ -0.12449436801296, -0.05199879529828 ]
      - [  0.21563057073484,  0.09006455552175 ]
      - [ -0.00000000000850,  0.00000000000965 ]
  - # 2
    frequency:     2.8840643150
    eigenvector:
    - # atom 1
      - [ -0.08284013433398,  0.00000000000000 ]
      - [ -0.04782777371442, -0.00000000000927 ]
      - [  0.03030073946941, -0.65243575755379 ]
    - # atom 2
      - [ -0.08242063546086, -0.00832626521155 ]
      - [ -0.04758557612645, -0.00480717146758 ]
      - [  0.03542904629919, -0.65217738018541 ]
    - # atom 3
      - [  0.02142739298069,  0.00236919896034 ]
      - [  0.01237111109039,  0.00136785765988 ]
      - [  0.01023626204853, -0.25206154188868 ]
    - # atom 4
      - [  0.02155701385882, -0.00020353332216 ]
      - [  0.01244594781155, -0.00011751000188 ]
      - [  0.01515028961619, -0.25181396046401 ]
  - # 3
    frequency:     4.8210266180
    eigenvector:
    - # atom 1
      - [ -0.33704584037884,  0.00000000000000 ]
      - [  0.58378051966610,  0.00000000004249 ]
      - [  0.00000000002031,  0.00000000012235 ]
    - # atom 2
      - [  0.32668979105948,  0.08290765103225 ]
      - [ -0.56584331717105, -0.14360026423719 ]
      - [ -0.00000000006364,  0.00000000013387 ]
    - # atom 3
      - [  0.10575185696288, -0.01471891038731 ]
      - [ -0.18316758940121,  0.02549390045797 ]
      - [  0.00000000001018,  0.00000000002091 ]
    - # atom 4
      - [ -0.09888192602268, -0.04027984974752 ]
      - [  0.17126851973722,  0.06976674637019 ]
      - [ -0.00000000001199,  0.00000000002531 ]
  - # 4
    frequency:     5.4866322852
    eigenvector:
    - # atom 1
      - [  0.57160929023399,  0.00000000000000 ]
      - [  0.33001877786682,  0.00000000006032 ]
      - [ -0.04227568987260, -0.09492499728662 ]
    - # atom 2
      - [  0.56173885825680, -0.10576689533736 ]
      - [  0.32432008064355, -0.06106454530191 ]
      - [  0.02398137284145, -0.10110827276098 ]
    - # atom 3
      - [  0.19466953095298,  0.03941020370466 ]
      - [  0.11239250597666,  0.02275349183612 ]
      - [ -0.00595340513390,  0.03029531727473 ]
    - # atom 4
      - [  0.18401580739586, -0.07475007048073 ]
      - [  0.10624157602603, -0.04315697328388 ]
      - [  0.01145625300410,  0.02867060425891 ]
  - # 5
    frequency:     6.8256884410
    eigenvector:
    - # atom 1
      - [  0.56742957985051,  0.00000000000000 ]
      - [  0.32760562063214,  0.00000000013967 ]
      - [ -0.00833267996774, -0.20948464169235 ]
    - # atom 2
      - [ -0.56035059531324,  0.08935064909234 ]
      - [ -0.32351856687553,  0.05158662118000 ]
      - [  0.02475790301655,  0.20818332041410 ]
    - # atom 3
      - [ -0.13070460128846, -0.03520363160642 ]
      - [ -0.07546233666264, -0.02032482624863 ]
      - [  0.00873385526483, -0.04730802320778 ]
    - # atom 4
      - [  0.12353063053574, -0.05534592838645 ]
      - [  0.07132044279789, -0.03195398664446 ]
      - [  0.01607428286457,  0.04534254864919 ]
  - # 6
    frequency:     8.9302090351
    eigenvector:
    - # atom 1
      - [  0.19375468983534,  0.00000000000000 ]
      - [  0.11186432233575,  0.00000000000031 ]
      - [  0.16203126115770,  0.64979107182193 ]
    - # atom 2
      - [ -0.17414553715234,  0.08493651588386 ]
      - [ -0.10054297271429,  0.04903812029463 ]
      - [ -0.13921711368337, -0.65505813625168 ]
    - # atom 3
      - [  0.01788792384180,  0.00745544179327 ]
      - [  0.01032759765950,  0.00430440131124 ]
      - [  0.00585094066375,  0.03046218739536 ]
    - # atom 4
      - [ -0.01280930468430,  0.01454246008152 ]
      - [ -0.00739545551858,  0.00839609324165 ]
      - [ -0.00809496203705, -0.02994411389872 ]
  - # 7
    frequency:    15.5075018734
    eigenvector:
    - # atom 1
      - [  0.07820760398442,  0.00000000000000 ]
      - [  0.04515318129369, -0.00000000008948 ]
      - [  0.04242322758547,  0.23391655157085 ]
    - # atom 2
      - [  0.07420061659591, -0.02471230098354 ]
      - [  0.04283974600048, -0.01426765367625 ]
      - [  0.03366407434787,  0.23533680850192 ]
    - # atom 3
      - [ -0.06105803086699, -0.01770961161663 ]
      - [ -0.03525187058942, -0.01022464889448 ]
      - [ -0.12009854705538, -0.64460489080805 ]
    - # atom 4
      - [ -0.05233376382337,  0.03609557624358 ]
      - [ -0.03021491291488,  0.02083979076921 ]
      - [ -0.08973914952329, -0.64952752928672 ]
  - # 8
    frequency:    15.9066927152
    eigenvector:
    - # atom 1
      - [  0.13377674839827,  0.00000000000000 ]
      - [ -0.23170812537225, -0.00000000031273 ]
      - [ -0.00000000010326,  0.00000000013752 ]
    - # atom 2
      - [  0.13273475104908, -0.01666446246313 ]
      - [ -0.22990333274495,  0.02886369558893 ]
      - [ -0.00000000006066,  0.00000000005669 ]
    - # atom 3
      - [ -0.27607401707170,  0.17574674583172 ]
      - [  0.47817422417962, -0.30440229299749 ]
      - [  0.00000000012842, -0.00000000015080 ]
    - # atom 4
      - [ -0.29581628575874, -0.13998752162578 ]
      - [  0.51236883804025,  0.24246550042991 ]
      - [  0.00000000017171, -0.00000000021693 ]
  - # 9
    frequency:    16.5067813636
    eigenvector:
    - # atom 1
      - [ -0.10819706782552,  0.00000000000000 ]
      - [  0.18740281923254,  0.00000000053982 ]
      - [  0.00000000010842, -0.00000000015867 ]
    - # atom 2
      - [  0.10267724272768, -0.03411728831579 ]
      - [ -0.17784220109654,  0.05909287702679 ]
      - [  0.00000000006823, -0.00000000001368 ]
    - # atom 3
      - [ -0.26754767575205,  0.20423426595296 ]
      - [  0.46340616853179, -0.35374412593663 ]
      - [ -0.00000000009267,  0.00000000002370 ]
    - # atom 4
      - [  0.31829861475998,  0.10945037921241 ]
      - [ -0.55130937537144, -0.18957361846351 ]
      - [ -0.00000000013257,  0.00000000018815 ]
  - # 10
    frequency:    17.1431988990
    eigenvector:
    - # atom 1
      - [  0.16034017417690,  0.00000000000000 ]
      - [  0.09257244241825,  0.00000000038886 ]
      - [ -0.01418482490176, -0.07574867506616 ]
    - # atom 2
      - [  0.12460412452928,  0.10090977939510 ]
      - [  0.07194022485225,  0.05826028811540 ]
      - [  0.05869564404212, -0.04993888667414 ]
    - # atom 3
      - [ -0.15731907550220, -0.55970200559011 ]
      - [ -0.09082821056103, -0.32314410300049 ]
      - [ -0.08744704356539,  0.03805014156851 ]
    - # atom 4
      - [ -0.47450373629273,  0.33594914988586 ]
      - [ -0.27395485857621,  0.19396033128929 ]
      - [  0.04401037323175,  0.08460428919217 ]
  - # 11
    frequency:    17.5321607229
    eigenvector:
    - # atom 1
      - [ -0.15076687710152,  0.00000000000000 ]
      - [ -0.08704529680863, -0.00000000012475 ]
      - [  0.00231144664759,  0.06940711126419 ]
    - # atom 2
      - [ -0.00033127991622,  0.15076651303222 ]
      - [ -0.00019126453953,  0.08704508686333 ]
      - [  0.06940186477059,  0.00246394927057 ]
    - # atom 3
      - [  0.08520292762213, -0.57882298825010 ]
      - [  0.04919193329812, -0.33418360816837 ]
      - [ -0.08492165828616,  0.03555230336620 ]
    - # atom 4
      - [  0.57900880772215, -0.08393087462041 ]
      - [  0.33429089005632, -0.04845751296937 ]
      - [  0.03573881584823, -0.08484333422538 ]
  - # 12
    frequency:    19.2906918035
    eigenvector:
    - # atom 1
      - [ -0.04823972944477,  0.00000000000000 ]
      - [ -0.02785122076286, -0.00000000000963 ]
      - [  0.01421536378835,  0.05191456731854 ]
    - # atom 2
      - [  0.04257724346035, -0.02267707731853 ]
      - [  0.02458198296671, -0.01309261669484 ]
      - [ -0.01185785365413, -0.05250323965455 ]
    - # atom 3
      - [ -0.08386185424779, -0.00125394957487 ]
      - [ -0.04841766411031, -0.00072396813108 ]
      - [ -0.18184224183976, -0.67197787233296 ]
    - # atom 4
      - [  0.07342849381611, -0.04052948663054 ]
      - [  0.04239396061460, -0.02339970999687 ]
      - [  0.15539375635726,  0.67858208221822 ]

- q-position: [    0.3333333,    0.0000000,    0.0000000 ]
  distance_from_gamma:  0.063270363
  weight: 1    
  band:
  - # 1
    frequency:     3.4881972589
    eigenvector:
    - # atom 1
      - [  0.33008821885428,  0.00000000000000 ]
      - [ -0.57172956595385, -0.00000000011307 ]
      - [ -0.00000000004433, -0.00000000001719 ]
    - # atom 2
      - [  0.28811478698735,  0.16108414457174 ]
      - [ -0.49902944969858, -0.27900592293450 ]
      - [ -0.00000000004257, -0.00000000003630 ]
    - # atom 3
      - [  0.12570238960079, -0.01551376975878 ]
      - [ -0.21772292536969,  0.02687063737270 ]
      - [  0.00000000000364, -0.00000000001094 ]
    - # atom 4
      - [  0.10214752585987,  0.07488424897111 ]
      - [ -0.17692470472830, -0.12970332401820 ]
      - [ -0.00000000000005, -0.00000000000199 ]
  - # 2
    frequency:     4.1341949211
    eigenvector:
    - # atom 1
      - [ -0.07708978825566,  0.00000000000000 ]
      - [ -0.04450780981760, -0.00000000000427 ]
      - [ -0.01802603169887, -0.66640617836493 ]
    - # atom 2
      - [ -0.07705102283713, -0.00244444497557 ]
      - [ -0.04448542892007, -0.00141130095001 ]
      - [  0.03914808282662, -0.66549948158715 ]
    - # atom 3
      - [  0.03697381143863,  0.01314980572430 ]
      - [  0.02134683995465,  0.00759204390040 ]
      - [ -0.00870505147427, -0.21336588827525 ]
    - # atom 4
      - [  0.03737218681536, -0.01197078832740 ]
      - [  0.02157684217724, -0.00691133783274 ]
      - [  0.01546630651456, -0.21298256633690 ]
  - # 3
    frequency:     5.3013833097
    eigenvector:
    - # atom 1
      - [  0.34012899372560,  0.00000000000000 ]
      - [ -0.58912069816280, -0.00000000007144 ]
      - [ -0.00000000002818, -0.00000000015387 ]
    - # atom 2
      - [ -0.29708607785866, -0.16561278498509 ]
      - [  0.51456818143723,  0.28684975827257 ]
      - [  0.00000000012561, -0.00000000013675 ]
    - # atom 3
      - [ -0.09583268274493,  0.01132980909441 ]
      - [  0.16598707554689, -0.01962380489520 ]
      - [ -0.00000000001033, -0.00000000003586 ]
    - # atom 4
      - [  0.07818855529279,  0.05655808936942 ]
      - [ -0.13542655033981, -0.09796148444438 ]
      - [  0.00000000002768, -0.00000000003398 ]
  - # 4
    frequency:     7.2075468895
    eigenvector:
    - # atom 1
      - [  0.49300291550024,  0.00000000000000 ]
      - [  0.28463536612452,  0.00000000007933 ]
      - [ -0.36449445206695, -0.13338889973256 ]
    - # atom 2
      - [  0.45702246083691,  0.18488468067795 ]
      - [  0.26386204054083,  0.10674322012840 ]
      - [  0.38791599298652,  0.01303788881409 ]
    - # atom 3
      - [  0.06252975429956,  0.10566308935619 ]
      - [  0.03610157039360,  0.06100461310903 ]
      - [ -0.06704850523426,  0.02621035320837 ]
    - # atom 4
      - [  0.09759169200943, -0.07450181388082 ]
      - [  0.05634458967566, -0.04301364230113 ]
      - [  0.05232581644283,  0.04944182038566 ]
  - # 5
    frequency:     7.6337024347
    eigenvector:
    - # atom 1
      - [ -0.47416336052814,  0.00000000000000 ]
      - [ -0.27375834384227, -0.00000000005578 ]
      - [ -0.20322267269666,  0.36584608866144 ]
    - # atom 2
      - [  0.10236085367121,  0.46298288107802 ]
      - [  0.05909806631330,  0.26730329087582 ]