phonopy:
  version: 2.17.1
  calculator: qe
  frequency_unit_conversion_factor: 108.970772
  symmetry_tolerance: 1.00000e-05
  configuration:
    dim: "2 2 2"
    primitive_axis: "AUTO"
    band: "0.0 0.0 0.0  0.5 0.0 0.0  0.3 0.3 0.0  0.0 0.0 0.0  0.0 0.0 0.5  0.5 0.0 0.5  0.3 0.3 0.5  0.0 0.0 0.5"
    band_labels: "$\\Gamma$ M K $\\Gamma$ A L H A"
    pdos: "AUTO"
    cell_filename: "GaN.relaxed.in"
    calculator: "qe"

physical_unit:
  atomic_mass: "AMU"
  length: "au"
  force_constants: "Ry/au^2"

space_group:
  type: "P6_3mc"
  number: 186
  Hall_symbol: "P 6c -2c"

primitive_matrix:
- [  1.000000000000000,  0.000000000000000,  0.000000000000000 ]
- [  0.000000000000000,  1.000000000000000,  0.000000000000000 ]
- [  0.000000000000000,  0.000000000000000,  1.000000000000000 ]

supercell_matrix:
- [   2,   0,   0 ]
- [   0,   2,   0 ]
- [   0,   0,   2 ]

primitive_cell:
  lattice:
  - [     6.083419775700261,     0.000000000000000,     0.000000000000000 ] # a
  - [    -3.041709887850131,     5.268396068308857,     0.000000000000000 ] # b
  - [     0.000000000000000,     0.000000000000000,     9.909651624673433 ] # c
  points:
  - symbol: Ga # 1
    coordinates: [  0.666666666700000,  0.333333333300000,  0.499121070200000 ]
    mass: 69.723000
  - symbol: Ga # 2
    coordinates: [  0.333333333300000,  0.666666666700000,  0.999121070200000 ]
    mass: 69.723000
  - symbol: N  # 3
    coordinates: [  0.666666666700000,  0.333333333300000,  0.875878929800000 ]
    mass: 14.006700
  - symbol: N  # 4
    coordinates: [  0.333333333300000,  0.666666666700000,  0.375878929800000 ]
    mass: 14.006700
  reciprocal_lattice: # without 2pi
  - [     0.164381225835248,     0.094905544973671,     0.000000000000000 ] # a*
  - [     0.000000000000000,     0.189811089947343,     0.000000000000000 ] # b*
  - [     0.000000000000000,     0.000000000000000,     0.100911721004416 ] # c*

unit_cell:
  lattice:
  - [     6.083419775700261,     0.000000000000000,     0.000000000000000 ] # a
  - [    -3.041709887850131,     5.268396068308857,    -0.000000000000000 ] # b
  - [    -0.000000000000000,     0.000000000000000,     9.909651624673431 ] # c
  points:
  - symbol: Ga # 1
    coordinates: [  0.666666666700000,  0.333333333300000,  0.499121070200000 ]
    mass: 69.723000
    reduced_to: 1
  - symbol: Ga # 2
    coordinates: [  0.333333333300000,  0.666666666700000,  0.999121070200000 ]
    mass: 69.723000
    reduced_to: 2
  - symbol: N  # 3
    coordinates: [  0.666666666700000,  0.333333333300000,  0.875878929800000 ]
    mass: 14.006700
    reduced_to: 3
  - symbol: N  # 4
    coordinates: [  0.333333333300000,  0.666666666700000,  0.375878929800000 ]
    mass: 14.006700
    reduced_to: 4

supercell:
  lattice:
  - [    12.166839551400523,     0.000000000000000,     0.000000000000000 ] # a
  - [    -6.083419775700261,    10.536792136617715,     0.000000000000000 ] # b
  - [     0.000000000000000,     0.000000000000000,    19.819303249346863 ] # c
  points:
  - symbol: Ga # 1
    coordinates: [  0.333333333350000,  0.166666666650000,  0.249560535100000 ]
    mass: 69.723000
    reduced_to: 1
  - symbol: Ga # 2
    coordinates: [  0.833333333350000,  0.166666666650000,  0.249560535100000 ]
    mass: 69.723000
    reduced_to: 1
  - symbol: Ga # 3
    coordinates: [  0.333333333350000,  0.666666666650000,  0.249560535100000 ]
    mass: 69.723000
    reduced_to: 1
  - symbol: Ga # 4
    coordinates: [  0.833333333350000,  0.666666666650000,  0.249560535100000 ]
    mass: 69.723000
    reduced_to: 1
  - symbol: Ga # 5
    coordinates: [  0.333333333350000,  0.166666666650000,  0.749560535100000 ]
    mass: 69.723000
    reduced_to: 1
  - symbol: Ga # 6
    coordinates: [  0.833333333350000,  0.166666666650000,  0.749560535100000 ]
    mass: 69.723000
    reduced_to: 1
  - symbol: Ga # 7
    coordinates: [  0.333333333350000,  0.666666666650000,  0.749560535100000 ]
    mass: 69.723000
    reduced_to: 1
  - symbol: Ga # 8
    coordinates: [  0.833333333350000,  0.666666666650000,  0.749560535100000 ]
    mass: 69.723000
    reduced_to: 1
  - symbol: Ga # 9
    coordinates: [  0.166666666650000,  0.333333333350000,  0.499560535100000 ]
    mass: 69.723000
    reduced_to: 9
  - symbol: Ga # 10
    coordinates: [  0.666666666650000,  0.333333333350000,  0.499560535100000 ]
    mass: 69.723000
    reduced_to: 9
  - symbol: Ga # 11
    coordinates: [  0.166666666650000,  0.833333333350000,  0.499560535100000 ]
    mass: 69.723000
    reduced_to: 9
  - symbol: Ga # 12
    coordinates: [  0.666666666650000,  0.833333333350000,  0.499560535100000 ]
    mass: 69.723000
    reduced_to: 9
  - symbol: Ga # 13
    coordinates: [  0.166666666650000,  0.333333333350000,  0.999560535100000 ]
    mass: 69.723000
    reduced_to: 9
  - symbol: Ga # 14
    coordinates: [  0.666666666650000,  0.333333333350000,  0.999560535100000 ]
    mass: 69.723000
    reduced_to: 9
  - symbol: Ga # 15
    coordinates: [  0.166666666650000,  0.833333333350000,  0.999560535100000 ]
    mass: 69.723000
    reduced_to: 9
  - symbol: Ga # 16
    coordinates: [  0.666666666650000,  0.833333333350000,  0.999560535100000 ]
    mass: 69.723000
    reduced_to: 9
  - symbol: N  # 17
    coordinates: [  0.333333333350000,  0.166666666650000,  0.437939464900000 ]
    mass: 14.006700
    reduced_to: 17
  - symbol: N  # 18
    coordinates: [  0.833333333350000,  0.166666666650000,  0.437939464900000 ]
    mass: 14.006700
    reduced_to: 17
  - symbol: N  # 19
    coordinates: [  0.333333333350000,  0.666666666650000,  0.437939464900000 ]
    mass: 14.006700
    reduced_to: 17
  - symbol: N  # 20
    coordinates: [  0.833333333350000,  0.666666666650000,  0.437939464900000 ]
    mass: 14.006700
    reduced_to: 17
  - symbol: N  # 21
    coordinates: [  0.333333333350000,  0.166666666650000,  0.937939464900000 ]
    mass: 14.006700
    reduced_to: 17
  - symbol: N  # 22
    coordinates: [  0.833333333350000,  0.166666666650000,  0.937939464900000 ]
    mass: 14.006700
    reduced_to: 17
  - symbol: N  # 23
    coordinates: [  0.333333333350000,  0.666666666650000,  0.937939464900000 ]
    mass: 14.006700
    reduced_to: 17
  - symbol: N  # 24
    coordinates: [  0.833333333350000,  0.666666666650000,  0.937939464900000 ]
    mass: 14.006700
    reduced_to: 17
  - symbol: N  # 25
    coordinates: [  0.166666666650000,  0.333333333350000,  0.187939464900000 ]
    mass: 14.006700
    reduced_to: 25
  - symbol: N  # 26
    coordinates: [  0.666666666650000,  0.333333333350000,  0.187939464900000 ]
    mass: 14.006700
    reduced_to: 25
  - symbol: N  # 27
    coordinates: [  0.166666666650000,  0.833333333350000,  0.187939464900000 ]
    mass: 14.006700
    reduced_to: 25
  - symbol: N  # 28
    coordinates: [  0.666666666650000,  0.833333333350000,  0.187939464900000 ]
    mass: 14.006700
    reduced_to: 25
  - symbol: N  # 29
    coordinates: [  0.166666666650000,  0.333333333350000,  0.687939464900000 ]
    mass: 14.006700
    reduced_to: 25
  - symbol: N  # 30
    coordinates: [  0.666666666650000,  0.333333333350000,  0.687939464900000 ]
    mass: 14.006700
    reduced_to: 25
  - symbol: N  # 31
    coordinates: [  0.166666666650000,  0.833333333350000,  0.687939464900000 ]
    mass: 14.006700
    reduced_to: 25
  - symbol: N  # 32
    coordinates: [  0.666666666650000,  0.833333333350000,  0.687939464900000 ]
    mass: 14.006700
    reduced_to: 25
