
     Program PWSCF v.6.8 starts on 28Mar2023 at 23:59: 5 

     This program is part of the open-source Quantum ESPRESSO suite
     for quantum simulation of materials; please cite
         "P. Giannozzi et al., J. Phys.:Condens. Matter 21 395502 (2009);
         "P. Giannozzi et al., J. Phys.:Condens. Matter 29 465901 (2017);
         "P. Giannozzi et al., J. Chem. Phys. 152 154105 (2020);
          URL http://www.quantum-espresso.org", 
     in publications or presentations arising from this work. More details at
     http://www.quantum-espresso.org/quote

     Parallel version (MPI & OpenMP), running on       6 processor cores
     Number of MPI processes:                 6
     Threads/MPI process:                     1

     MPI processes distributed on     1 nodes
     R & G space division:  proc/nbgrp/npool/nimage =       6
     161581 MiB available memory on the printing compute node when the environment starts
 
     Waiting for input...
     Reading input from standard input

     Current dimensions of program PWSCF are:
     Max number of different atomic species (ntypx) = 10
     Max number of k-points (npk) =  40000
     Max angular momentum in pseudopotentials (lmaxx) =  4

     Subspace diagonalization in iterative solution of the eigenvalue problem:
     one sub-group per band group will be used
     scalapack distributed-memory algorithm (size of sub-group:  2*  2 procs)

 
     Parallelization info
     --------------------
     sticks:   dense  smooth     PW     G-vecs:    dense   smooth      PW
     Min        1023    1023    271               105132   105132   14277
     Max        1025    1025    272               105135   105135   14280
     Sum        6145    6145   1627               630803   630803   85669
 
     Using Slab Decomposition
 


     bravais-lattice index     =            0
     lattice parameter (alat)  =      12.1668  a.u.
     unit-cell volume          =    2540.8240 (a.u.)^3
     number of atoms/cell      =           32
     number of atomic types    =            2
     number of electrons       =       288.00
     number of Kohn-Sham states=          144
     kinetic-energy cutoff     =     150.0000  Ry
     charge density cutoff     =     600.0000  Ry
     scf convergence threshold =      1.0E-08
     mixing beta               =       0.7000
     number of iterations used =            8  plain     mixing
     Exchange-correlation= PBE
                           (   1   4   3   4   0   0   0)

     celldm(1)=  12.166840  celldm(2)=   0.000000  celldm(3)=   0.000000
     celldm(4)=   0.000000  celldm(5)=   0.000000  celldm(6)=   0.000000

     crystal axes: (cart. coord. in units of alat)
               a(1) = (   1.000000   0.000000   0.000000 )  
               a(2) = (  -0.500000   0.866025   0.000000 )  
               a(3) = (   0.000000   0.000000   1.628961 )  

     reciprocal axes: (cart. coord. in units 2 pi/alat)
               b(1) = (  1.000000  0.577350  0.000000 )  
               b(2) = (  0.000000  1.154701  0.000000 )  
               b(3) = (  0.000000  0.000000  0.613888 )  


     PseudoPot. # 1 for Ga read from file:
     ../pseudo/Ga_ONCV_PBE_sr.upf
     MD5 check sum: e3654b1fbeb096be7359f640ef9d98d7
     Pseudo is Norm-conserving + core correction, Zval = 13.0
     Generated using ONCVPSP code by D. R. Hamann
     Using radial grid of 1902 points,  6 beta functions with: 
                l(1) =   0
                l(2) =   0
                l(3) =   1
                l(4) =   1
                l(5) =   2
                l(6) =   2

     PseudoPot. # 2 for N  read from file:
     ../pseudo/N_ONCV_PBE_sr.upf
     MD5 check sum: 18c6af81dac9c5a2d6d52ed11cf7bfee
     Pseudo is Norm-conserving + core correction, Zval =  5.0
     Generated using ONCVPSP code by D. R. Hamann
     Using radial grid of 1058 points,  4 beta functions with: 
                l(1) =   0
                l(2) =   0
                l(3) =   1
                l(4) =   1

     atomic species   valence    mass     pseudopotential
        Ga            13.00    69.72300     Ga( 1.00)
        N              5.00    14.00670     N ( 1.00)

     No symmetry found


                                    s                        frac. trans.

      isym =  1     identity                                     

 cryst.   s( 1) = (     1          0          0      )
                  (     0          1          0      )
                  (     0          0          1      )

 cart.    s( 1) = (  1.0000000  0.0000000  0.0000000 )
                  (  0.0000000  1.0000000  0.0000000 )
                  (  0.0000000  0.0000000  1.0000000 )


   Cartesian axes

     site n.     atom                  positions (alat units)
         1           Ga  tau(   1) = (   0.2500000   0.1443376   0.4065243  )
         2           Ga  tau(   2) = (   0.7500000   0.1443376   0.4065243  )
         3           Ga  tau(   3) = (   0.0000000   0.5773503   0.4065243  )
         4           Ga  tau(   4) = (   0.5000000   0.5773503   0.4065243  )
         5           Ga  tau(   5) = (   0.2500000   0.1443376   1.2210046  )
         6           Ga  tau(   6) = (   0.7500000   0.1443376   1.2210046  )
         7           Ga  tau(   7) = (   0.0000000   0.5773503   1.2210046  )
         8           Ga  tau(   8) = (   0.5000000   0.5773503   1.2210046  )
         9           Ga  tau(   9) = (  -0.0000000   0.2886751   0.8137645  )
        10           Ga  tau(  10) = (   0.5000000   0.2886751   0.8137645  )
        11           Ga  tau(  11) = (  -0.2500000   0.7216878   0.8137645  )
        12           Ga  tau(  12) = (   0.2500000   0.7216878   0.8137645  )
        13           Ga  tau(  13) = (  -0.0000000   0.2886751   1.6282448  )
        14           Ga  tau(  14) = (   0.5000000   0.2886751   1.6282448  )
        15           Ga  tau(  15) = (  -0.2500000   0.7216878   1.6282448  )
        16           Ga  tau(  16) = (   0.2500000   0.7216878   1.6282448  )
        17           N   tau(  17) = (   0.2491400   0.1443376   0.7119853  )
        18           N   tau(  18) = (   0.7500000   0.1443376   0.7133862  )
        19           N   tau(  19) = (   0.0000000   0.5773503   0.7133862  )
        20           N   tau(  20) = (   0.5000000   0.5773503   0.7133862  )
        21           N   tau(  21) = (   0.2500000   0.1443376   1.5278665  )
        22           N   tau(  22) = (   0.7500000   0.1443376   1.5278665  )
        23           N   tau(  23) = (   0.0000000   0.5773503   1.5278665  )
        24           N   tau(  24) = (   0.5000000   0.5773503   1.5278665  )
        25           N   tau(  25) = (  -0.0000000   0.2886751   0.3061460  )
        26           N   tau(  26) = (   0.5000000   0.2886751   0.3061460  )
        27           N   tau(  27) = (  -0.2500000   0.7216878   0.3061460  )
        28           N   tau(  28) = (   0.2500000   0.7216878   0.3061460  )
        29           N   tau(  29) = (  -0.0000000   0.2886751   1.1206263  )
        30           N   tau(  30) = (   0.5000000   0.2886751   1.1206263  )
        31           N   tau(  31) = (  -0.2500000   0.7216878   1.1206263  )
        32           N   tau(  32) = (   0.2500000   0.7216878   1.1206263  )

   Crystallographic axes

     site n.     atom                  positions (cryst. coord.)
         1           Ga  tau(   1) = (  0.3333333  0.1666667  0.2495605  )
         2           Ga  tau(   2) = (  0.8333333  0.1666667  0.2495605  )
         3           Ga  tau(   3) = (  0.3333333  0.6666667  0.2495605  )
         4           Ga  tau(   4) = (  0.8333333  0.6666667  0.2495605  )
         5           Ga  tau(   5) = (  0.3333333  0.1666667  0.7495605  )
         6           Ga  tau(   6) = (  0.8333333  0.1666667  0.7495605  )
         7           Ga  tau(   7) = (  0.3333333  0.6666667  0.7495605  )
         8           Ga  tau(   8) = (  0.8333333  0.6666667  0.7495605  )
         9           Ga  tau(   9) = (  0.1666667  0.3333333  0.4995605  )
        10           Ga  tau(  10) = (  0.6666667  0.3333333  0.4995605  )
        11           Ga  tau(  11) = (  0.1666667  0.8333333  0.4995605  )
        12           Ga  tau(  12) = (  0.6666667  0.8333333  0.4995605  )
        13           Ga  tau(  13) = (  0.1666667  0.3333333  0.9995605  )
        14           Ga  tau(  14) = (  0.6666667  0.3333333  0.9995605  )
        15           Ga  tau(  15) = (  0.1666667  0.8333333  0.9995605  )
        16           Ga  tau(  16) = (  0.6666667  0.8333333  0.9995605  )
        17           N   tau(  17) = (  0.3324733  0.1666667  0.4370795  )
        18           N   tau(  18) = (  0.8333333  0.1666667  0.4379395  )
        19           N   tau(  19) = (  0.3333333  0.6666667  0.4379395  )
        20           N   tau(  20) = (  0.8333333  0.6666667  0.4379395  )
        21           N   tau(  21) = (  0.3333333  0.1666667  0.9379395  )
        22           N   tau(  22) = (  0.8333333  0.1666667  0.9379395  )
        23           N   tau(  23) = (  0.3333333  0.6666667  0.9379395  )
        24           N   tau(  24) = (  0.8333333  0.6666667  0.9379395  )
        25           N   tau(  25) = (  0.1666667  0.3333333  0.1879395  )
        26           N   tau(  26) = (  0.6666667  0.3333333  0.1879395  )
        27           N   tau(  27) = (  0.1666667  0.8333333  0.1879395  )
        28           N   tau(  28) = (  0.6666667  0.8333333  0.1879395  )
        29           N   tau(  29) = (  0.1666667  0.3333333  0.6879395  )
        30           N   tau(  30) = (  0.6666667  0.3333333  0.6879395  )
        31           N   tau(  31) = (  0.1666667  0.8333333  0.6879395  )
        32           N   tau(  32) = (  0.6666667  0.8333333  0.6879395  )

     number of k points=    63
                       cart. coord. in units 2pi/alat
        k(    1) = (   0.0000000   0.0000000   0.0000000), wk =   0.0160000
        k(    2) = (   0.0000000   0.0000000   0.1227777), wk =   0.0320000
        k(    3) = (   0.0000000   0.0000000   0.2455553), wk =   0.0320000
        k(    4) = (   0.0000000   0.2309401   0.0000000), wk =   0.0320000
        k(    5) = (   0.0000000   0.2309401   0.1227777), wk =   0.0320000
        k(    6) = (   0.0000000   0.2309401   0.2455553), wk =   0.0320000
        k(    7) = (   0.0000000   0.4618802   0.0000000), wk =   0.0320000
        k(    8) = (   0.0000000   0.4618802   0.1227777), wk =   0.0320000
        k(    9) = (   0.0000000   0.4618802   0.2455553), wk =   0.0320000
        k(   10) = (   0.2000000   0.3464102   0.0000000), wk =   0.0320000
        k(   11) = (   0.2000000   0.3464102   0.1227777), wk =   0.0320000
        k(   12) = (   0.2000000   0.3464102   0.2455553), wk =   0.0320000
        k(   13) = (   0.2000000   0.5773503   0.0000000), wk =   0.0320000
        k(   14) = (   0.2000000   0.5773503   0.1227777), wk =   0.0320000
        k(   15) = (   0.2000000   0.5773503   0.2455553), wk =   0.0320000
        k(   16) = (  -0.2000000   0.1154701   0.0000000), wk =   0.0320000
        k(   17) = (   0.2000000   0.1154701   0.0000000), wk =   0.0320000
        k(   18) = (   0.0000000  -0.2309401   0.1227777), wk =   0.0320000
        k(   19) = (  -0.2000000   0.1154701   0.1227777), wk =   0.0320000
        k(   20) = (   0.2000000   0.1154701   0.1227777), wk =   0.0320000
        k(   21) = (  -0.2000000  -0.1154701   0.1227777), wk =   0.0320000
        k(   22) = (   0.2000000  -0.1154701   0.1227777), wk =   0.0320000
        k(   23) = (   0.0000000  -0.2309401   0.2455553), wk =   0.0320000
        k(   24) = (  -0.2000000   0.1154701   0.2455553), wk =   0.0320000
        k(   25) = (   0.2000000   0.1154701   0.2455553), wk =   0.0320000
        k(   26) = (  -0.2000000  -0.1154701   0.2455553), wk =   0.0320000
        k(   27) = (   0.2000000  -0.1154701   0.2455553), wk =   0.0320000
        k(   28) = (  -0.4000000   0.2309401   0.0000000), wk =   0.0320000
        k(   29) = (   0.4000000   0.2309401   0.0000000), wk =   0.0320000
        k(   30) = (   0.0000000  -0.4618802   0.1227777), wk =   0.0320000
        k(   31) = (  -0.4000000   0.2309401   0.1227777), wk =   0.0320000
        k(   32) = (   0.4000000   0.2309401   0.1227777), wk =   0.0320000
        k(   33) = (  -0.4000000  -0.2309401   0.1227777), wk =   0.0320000
        k(   34) = (   0.4000000  -0.2309401   0.1227777), wk =   0.0320000
        k(   35) = (   0.0000000  -0.4618802   0.2455553), wk =   0.0320000
        k(   36) = (  -0.4000000   0.2309401   0.2455553), wk =   0.0320000
        k(   37) = (   0.4000000   0.2309401   0.2455553), wk =   0.0320000
        k(   38) = (  -0.4000000  -0.2309401   0.2455553), wk =   0.0320000
        k(   39) = (   0.4000000  -0.2309401   0.2455553), wk =   0.0320000
        k(   40) = (  -0.2000000   0.3464102   0.0000000), wk =   0.0320000
        k(   41) = (   0.4000000   0.0000000   0.0000000), wk =   0.0320000
        k(   42) = (  -0.2000000  -0.3464102   0.1227777), wk =   0.0320000
        k(   43) = (  -0.2000000   0.3464102  -0.1227777), wk =   0.0320000
        k(   44) = (   0.2000000  -0.3464102  -0.1227777), wk =   0.0320000
        k(   45) = (   0.4000000   0.0000000   0.1227777), wk =   0.0320000
        k(   46) = (  -0.4000000   0.0000000   0.1227777), wk =   0.0320000
        k(   47) = (  -0.2000000  -0.3464102   0.2455553), wk =   0.0320000
        k(   48) = (  -0.2000000   0.3464102  -0.2455553), wk =   0.0320000
        k(   49) = (   0.2000000  -0.3464102  -0.2455553), wk =   0.0320000
        k(   50) = (   0.4000000   0.0000000   0.2455553), wk =   0.0320000
        k(   51) = (  -0.4000000   0.0000000   0.2455553), wk =   0.0320000
        k(   52) = (  -0.4000000   0.4618802   0.0000000), wk =   0.0320000
        k(   53) = (   0.6000000   0.1154701   0.0000000), wk =   0.0320000
        k(   54) = (  -0.2000000  -0.5773503   0.1227777), wk =   0.0320000
        k(   55) = (  -0.4000000   0.4618802   0.1227777), wk =   0.0320000
        k(   56) = (   0.6000000   0.1154701   0.1227777), wk =   0.0320000
        k(   57) = (  -0.6000000  -0.1154701   0.1227777), wk =   0.0320000
        k(   58) = (   0.4000000  -0.4618802   0.1227777), wk =   0.0320000
        k(   59) = (  -0.2000000  -0.5773503   0.2455553), wk =   0.0320000
        k(   60) = (  -0.4000000   0.4618802   0.2455553), wk =   0.0320000
        k(   61) = (   0.6000000   0.1154701   0.2455553), wk =   0.0320000
        k(   62) = (  -0.6000000  -0.1154701   0.2455553), wk =   0.0320000
        k(   63) = (   0.4000000  -0.4618802   0.2455553), wk =   0.0320000

                       cryst. coord.
        k(    1) = (   0.0000000   0.0000000   0.0000000), wk =   0.0160000
        k(    2) = (   0.0000000   0.0000000   0.2000000), wk =   0.0320000
        k(    3) = (   0.0000000   0.0000000   0.4000000), wk =   0.0320000
        k(    4) = (   0.0000000   0.2000000   0.0000000), wk =   0.0320000
        k(    5) = (   0.0000000   0.2000000   0.2000000), wk =   0.0320000
        k(    6) = (   0.0000000   0.2000000   0.4000000), wk =   0.0320000
        k(    7) = (   0.0000000   0.4000000   0.0000000), wk =   0.0320000
        k(    8) = (   0.0000000   0.4000000   0.2000000), wk =   0.0320000
        k(    9) = (   0.0000000   0.4000000   0.4000000), wk =   0.0320000
        k(   10) = (   0.2000000   0.2000000   0.0000000), wk =   0.0320000
        k(   11) = (   0.2000000   0.2000000   0.2000000), wk =   0.0320000
        k(   12) = (   0.2000000   0.2000000   0.4000000), wk =   0.0320000
        k(   13) = (   0.2000000   0.4000000   0.0000000), wk =   0.0320000
        k(   14) = (   0.2000000   0.4000000   0.2000000), wk =   0.0320000
        k(   15) = (   0.2000000   0.4000000   0.4000000), wk =   0.0320000
        k(   16) = (  -0.2000000   0.2000000   0.0000000), wk =   0.0320000
        k(   17) = (   0.2000000   0.0000000   0.0000000), wk =   0.0320000
        k(   18) = (   0.0000000  -0.2000000   0.2000000), wk =   0.0320000
        k(   19) = (  -0.2000000   0.2000000   0.2000000), wk =   0.0320000
        k(   20) = (   0.2000000   0.0000000   0.2000000), wk =   0.0320000
        k(   21) = (  -0.2000000   0.0000000   0.2000000), wk =   0.0320000
        k(   22) = (   0.2000000  -0.2000000   0.2000000), wk =   0.0320000
        k(   23) = (   0.0000000  -0.2000000   0.4000000), wk =   0.0320000
        k(   24) = (  -0.2000000   0.2000000   0.4000000), wk =   0.0320000
        k(   25) = (   0.2000000   0.0000000   0.4000000), wk =   0.0320000
        k(   26) = (  -0.2000000   0.0000000   0.4000000), wk =   0.0320000
        k(   27) = (   0.2000000  -0.2000000   0.4000000), wk =   0.0320000
        k(   28) = (  -0.4000000   0.4000000   0.0000000), wk =   0.0320000
        k(   29) = (   0.4000000   0.0000000   0.0000000), wk =   0.0320000
        k(   30) = (   0.0000000  -0.4000000   0.2000000), wk =   0.0320000
        k(   31) = (  -0.4000000   0.4000000   0.2000000), wk =   0.0320000
        k(   32) = (   0.4000000   0.0000000   0.2000000), wk =   0.0320000
        k(   33) = (  -0.4000000   0.0000000   0.2000000), wk =   0.0320000
        k(   34) = (   0.4000000  -0.4000000   0.2000000), wk =   0.0320000
        k(   35) = (   0.0000000  -0.4000000   0.4000000), wk =   0.0320000
        k(   36) = (  -0.4000000   0.4000000   0.4000000), wk =   0.0320000
        k(   37) = (   0.4000000   0.0000000   0.4000000), wk =   0.0320000
        k(   38) = (  -0.4000000   0.0000000   0.4000000), wk =   0.0320000
        k(   39) = (   0.4000000  -0.4000000   0.4000000), wk =   0.0320000
        k(   40) = (  -0.2000000   0.4000000   0.0000000), wk =   0.0320000
        k(   41) = (   0.4000000  -0.2000000   0.0000000), wk =   0.0320000
        k(   42) = (  -0.2000000  -0.2000000   0.2000000), wk =   0.0320000
        k(   43) = (  -0.2000000   0.4000000  -0.2000000), wk =   0.0320000
        k(   44) = (   0.2000000  -0.4000000  -0.2000000), wk =   0.0320000
        k(   45) = (   0.4000000  -0.2000000   0.2000000), wk =   0.0320000
        k(   46) = (  -0.4000000   0.2000000   0.2000000), wk =   0.0320000
        k(   47) = (  -0.2000000  -0.2000000   0.4000000), wk =   0.0320000
        k(   48) = (  -0.2000000   0.4000000  -0.4000000), wk =   0.0320000
        k(   49) = (   0.2000000  -0.4000000  -0.4000000), wk =   0.0320000
        k(   50) = (   0.4000000  -0.2000000   0.4000000), wk =   0.0320000
        k(   51) = (  -0.4000000   0.2000000   0.4000000), wk =   0.0320000
        k(   52) = (  -0.4000000   0.6000000   0.0000000), wk =   0.0320000
        k(   53) = (   0.6000000  -0.2000000   0.0000000), wk =   0.0320000
        k(   54) = (  -0.2000000  -0.4000000   0.2000000), wk =   0.0320000
        k(   55) = (  -0.4000000   0.6000000   0.2000000), wk =   0.0320000
        k(   56) = (   0.6000000  -0.2000000   0.2000000), wk =   0.0320000
        k(   57) = (  -0.6000000   0.2000000   0.2000000), wk =   0.0320000
        k(   58) = (   0.4000000  -0.6000000   0.2000000), wk =   0.0320000
        k(   59) = (  -0.2000000  -0.4000000   0.4000000), wk =   0.0320000
        k(   60) = (  -0.4000000   0.6000000   0.4000000), wk =   0.0320000
        k(   61) = (   0.6000000  -0.2000000   0.4000000), wk =   0.0320000
        k(   62) = (  -0.6000000   0.2000000   0.4000000), wk =   0.0320000
        k(   63) = (   0.4000000  -0.6000000   0.4000000), wk =   0.0320000

     Dense  grid:   630803 G-vectors     FFT dimensions: (  96,  96, 160)

     Dynamical RAM for                 wfc:      28.87 MB

     Dynamical RAM for     wfc (w. buffer):    1847.39 MB

     Dynamical RAM for           str. fact:       3.21 MB

     Dynamical RAM for           local pot:       0.00 MB

     Dynamical RAM for          nlocal pot:      83.39 MB

     Dynamical RAM for                qrad:       3.93 MB

     Dynamical RAM for          rho,v,vnew:      10.51 MB

     Dynamical RAM for               rhoin:       3.50 MB

     Dynamical RAM for            rho*nmix:      25.67 MB

     Dynamical RAM for           G-vectors:       6.82 MB

     Dynamical RAM for          h,s,v(r/c):       0.95 MB

     Dynamical RAM for          <psi|beta>:       0.91 MB

     Dynamical RAM for                 psi:      57.73 MB

     Dynamical RAM for                hpsi:      57.73 MB

     Dynamical RAM for      wfcinit/wfcrot:      84.38 MB

     Estimated static dynamical RAM per process >       1.93 GB

     Estimated max dynamical RAM per process >       2.07 GB

     Estimated total dynamical RAM >      12.40 GB

     Initial potential from superposition of free atoms

     starting charge  287.95708, renormalised to  288.00000
     Starting wfcs are  208 randomized atomic wfcs

     total cpu time spent up to now is       83.7 secs

     Self-consistent Calculation

     iteration #  1     ecut=   150.00 Ry     beta= 0.70
     Davidson diagonalization with overlap

---- Real-time Memory Report at c_bands before calling an iterative solver
          2232 MiB given to the printing process from OS
             0 MiB allocation reported by mallinfo(arena+hblkhd)
        148688 MiB available memory on the node where the printing process lives
------------------
     ethr =  1.00E-02,  avg # of iterations =  2.0

     total cpu time spent up to now is      272.9 secs

     total energy              =   -2776.29240287 Ry
     estimated scf accuracy    <       8.27599627 Ry

     iteration #  2     ecut=   150.00 Ry     beta= 0.70
     Davidson diagonalization with overlap

---- Real-time Memory Report at c_bands before calling an iterative solver
          2299 MiB given to the printing process from OS
             0 MiB allocation reported by mallinfo(arena+hblkhd)
        148788 MiB available memory on the node where the printing process lives
------------------
     ethr =  2.87E-03,  avg # of iterations =  3.0

     total cpu time spent up to now is      472.3 secs

     total energy              =   -2779.02747887 Ry
     estimated scf accuracy    <       7.32162232 Ry

     iteration #  3     ecut=   150.00 Ry     beta= 0.70
     Davidson diagonalization with overlap

---- Real-time Memory Report at c_bands before calling an iterative solver
          2328 MiB given to the printing process from OS
             0 MiB allocation reported by mallinfo(arena+hblkhd)
        149466 MiB available memory on the node where the printing process lives
------------------
     ethr =  2.54E-03,  avg # of iterations =  2.0

     negative rho (up, down):  4.613E-06 0.000E+00

     total cpu time spent up to now is      648.9 secs

     total energy              =   -2779.90166200 Ry
     estimated scf accuracy    <       0.24670890 Ry

     iteration #  4     ecut=   150.00 Ry     beta= 0.70
     Davidson diagonalization with overlap

---- Real-time Memory Report at c_bands before calling an iterative solver
          2342 MiB given to the printing process from OS
             0 MiB allocation reported by mallinfo(arena+hblkhd)
        149417 MiB available memory on the node where the printing process lives
------------------
     ethr =  8.57E-05,  avg # of iterations =  5.2

     negative rho (up, down):  8.897E-07 0.000E+00

     total cpu time spent up to now is      918.7 secs

     total energy              =   -2780.15691063 Ry
     estimated scf accuracy    <       0.79633069 Ry

     iteration #  5     ecut=   150.00 Ry     beta= 0.70
     Davidson diagonalization with overlap

---- Real-time Memory Report at c_bands before calling an iterative solver
          2377 MiB given to the printing process from OS
             0 MiB allocation reported by mallinfo(arena+hblkhd)
        149235 MiB available memory on the node where the printing process lives
------------------
     ethr =  8.57E-05,  avg # of iterations =  2.5

     negative rho (up, down):  4.829E-07 0.000E+00

     total cpu time spent up to now is     1096.6 secs

     total energy              =   -2780.18144178 Ry
     estimated scf accuracy    <       0.19603737 Ry

     iteration #  6     ecut=   150.00 Ry     beta= 0.70
     Davidson diagonalization with overlap

---- Real-time Memory Report at c_bands before calling an iterative solver
          2384 MiB given to the printing process from OS
             0 MiB allocation reported by mallinfo(arena+hblkhd)
        149182 MiB available memory on the node where the printing process lives
------------------
     ethr =  6.81E-05,  avg # of iterations =  1.2

     negative rho (up, down):  3.752E-07 0.000E+00

     total cpu time spent up to now is     1236.1 secs

     total energy              =   -2780.18263855 Ry
     estimated scf accuracy    <       0.11913479 Ry

     iteration #  7     ecut=   150.00 Ry     beta= 0.70
     Davidson diagonalization with overlap

---- Real-time Memory Report at c_bands before calling an iterative solver
          2393 MiB given to the printing process from OS
             0 MiB allocation reported by mallinfo(arena+hblkhd)
        149150 MiB available memory on the node where the printing process lives
------------------
     ethr =  4.14E-05,  avg # of iterations =  1.0

     negative rho (up, down):  3.765E-07 0.000E+00

     total cpu time spent up to now is     1373.9 secs

     total energy              =   -2780.18380072 Ry
     estimated scf accuracy    <       0.10801093 Ry

     iteration #  8     ecut=   150.00 Ry     beta= 0.70
     Davidson diagonalization with overlap

---- Real-time Memory Report at c_bands before calling an iterative solver
          2403 MiB given to the printing process from OS
             0 MiB allocation reported by mallinfo(arena+hblkhd)
        149117 MiB available memory on the node where the printing process lives
------------------
     ethr =  3.75E-05,  avg # of iterations =  1.0

     total cpu time spent up to now is     1511.8 secs

     total energy              =   -2780.18419788 Ry
     estimated scf accuracy    <       0.09425652 Ry

     iteration #  9     ecut=   150.00 Ry     beta= 0.70
     Davidson diagonalization with overlap

---- Real-time Memory Report at c_bands before calling an iterative solver
          2406 MiB given to the printing process from OS
             0 MiB allocation reported by mallinfo(arena+hblkhd)
        149088 MiB available memory on the node where the printing process lives
------------------
     ethr =  3.27E-05,  avg # of iterations =  1.0

     total cpu time spent up to now is     1646.9 secs

     total energy              =   -2780.17224013 Ry
     estimated scf accuracy    <       0.09082293 Ry

     iteration # 10     ecut=   150.00 Ry     beta= 0.70
     Davidson diagonalization with overlap

---- Real-time Memory Report at c_bands before calling an iterative solver
          2415 MiB given to the printing process from OS
             0 MiB allocation reported by mallinfo(arena+hblkhd)
        149076 MiB available memory on the node where the printing process lives
------------------
     ethr =  3.15E-05,  avg # of iterations =  1.0

     total cpu time spent up to now is     1791.2 secs

     total energy              =   -2780.16778096 Ry
     estimated scf accuracy    <       0.05084988 Ry

     iteration # 11     ecut=   150.00 Ry     beta= 0.70
     Davidson diagonalization with overlap

---- Real-time Memory Report at c_bands before calling an iterative solver
          2418 MiB given to the printing process from OS
             0 MiB allocation reported by mallinfo(arena+hblkhd)
        148942 MiB available memory on the node where the printing process lives
------------------
     ethr =  1.77E-05,  avg # of iterations =  1.1

     total cpu time spent up to now is     1938.7 secs

     total energy              =   -2780.16124920 Ry
     estimated scf accuracy    <       0.03490209 Ry

     iteration # 12     ecut=   150.00 Ry     beta= 0.70
     Davidson diagonalization with overlap

---- Real-time Memory Report at c_bands before calling an iterative solver
          2418 MiB given to the printing process from OS
             0 MiB allocation reported by mallinfo(arena+hblkhd)
        148755 MiB available memory on the node where the printing process lives
------------------
     ethr =  1.21E-05,  avg # of iterations =  2.1

     total cpu time spent up to now is     2111.6 secs

     total energy              =   -2780.16137607 Ry
     estimated scf accuracy    <       0.01286531 Ry

     iteration # 13     ecut=   150.00 Ry     beta= 0.70
     Davidson diagonalization with overlap

---- Real-time Memory Report at c_bands before calling an iterative solver
          2418 MiB given to the printing process from OS
             0 MiB allocation reported by mallinfo(arena+hblkhd)
        149180 MiB available memory on the node where the printing process lives
------------------
     ethr =  4.47E-06,  avg # of iterations =  4.0

     total cpu time spent up to now is     2305.0 secs

     total energy              =   -2780.16233153 Ry
     estimated scf accuracy    <       0.00341423 Ry

     iteration # 14     ecut=   150.00 Ry     beta= 0.70
     Davidson diagonalization with overlap

---- Real-time Memory Report at c_bands before calling an iterative solver
          2418 MiB given to the printing process from OS
             0 MiB allocation reported by mallinfo(arena+hblkhd)
        148335 MiB available memory on the node where the printing process lives
------------------
     ethr =  1.19E-06,  avg # of iterations =  3.8

     total cpu time spent up to now is     2483.0 secs

     total energy              =   -2780.16264975 Ry
     estimated scf accuracy    <       0.00175166 Ry

     iteration # 15     ecut=   150.00 Ry     beta= 0.70
     Davidson diagonalization with overlap

---- Real-time Memory Report at c_bands before calling an iterative solver
          2418 MiB given to the printing process from OS
             0 MiB allocation reported by mallinfo(arena+hblkhd)
        148178 MiB available memory on the node where the printing process lives
------------------
     ethr =  6.08E-07,  avg # of iterations =  1.0

     total cpu time spent up to now is     2621.8 secs

     total energy              =   -2780.16231084 Ry
     estimated scf accuracy    <       0.00201210 Ry

     iteration # 16     ecut=   150.00 Ry     beta= 0.70
     Davidson diagonalization with overlap

---- Real-time Memory Report at c_bands before calling an iterative solver
          2418 MiB given to the printing process from OS
             0 MiB allocation reported by mallinfo(arena+hblkhd)
        148906 MiB available memory on the node where the printing process lives
------------------
     ethr =  6.08E-07,  avg # of iterations =  1.2

     total cpu time spent up to now is     2758.9 secs

     total energy              =   -2780.16167378 Ry
     estimated scf accuracy    <       0.00108013 Ry

     iteration # 17     ecut=   150.00 Ry     beta= 0.70
     Davidson diagonalization with overlap

---- Real-time Memory Report at c_bands before calling an iterative solver
          2418 MiB given to the printing process from OS
             0 MiB allocation reported by mallinfo(arena+hblkhd)
        148881 MiB available memory on the node where the printing process lives
------------------
     ethr =  3.75E-07,  avg # of iterations =  3.3

     total cpu time spent up to now is     2944.3 secs

     total energy              =   -2780.16213391 Ry
     estimated scf accuracy    <       0.00018972 Ry

     iteration # 18     ecut=   150.00 Ry     beta= 0.70
     Davidson diagonalization with overlap

---- Real-time Memory Report at c_bands before calling an iterative solver
          2423 MiB given to the printing process from OS
             0 MiB allocation reported by mallinfo(arena+hblkhd)
        148807 MiB available memory on the node where the printing process lives
------------------
     ethr =  6.59E-08,  avg # of iterations =  2.0

     total cpu time spent up to now is     3091.5 secs

     total energy              =   -2780.16210423 Ry
     estimated scf accuracy    <       0.00019078 Ry

     iteration # 19     ecut=   150.00 Ry     beta= 0.70
     Davidson diagonalization with overlap

---- Real-time Memory Report at c_bands before calling an iterative solver
          2423 MiB given to the printing process from OS
             0 MiB allocation reported by mallinfo(arena+hblkhd)
        148784 MiB available memory on the node where the printing process lives
------------------
     ethr =  6.59E-08,  avg # of iterations =  1.0

     total cpu time spent up to now is     3226.6 secs

     total energy              =   -2780.16211128 Ry
     estimated scf accuracy    <       0.00011319 Ry

     iteration # 20     ecut=   150.00 Ry     beta= 0.70
     Davidson diagonalization with overlap

---- Real-time Memory Report at c_bands before calling an iterative solver
          2423 MiB given to the printing process from OS
             0 MiB allocation reported by mallinfo(arena+hblkhd)
        148764 MiB available memory on the node where the printing process lives
------------------
     ethr =  3.93E-08,  avg # of iterations =  1.0

     total cpu time spent up to now is     3360.9 secs

     total energy              =   -2780.16208706 Ry
     estimated scf accuracy    <       0.00011738 Ry

     iteration # 21     ecut=   150.00 Ry     beta= 0.70
     Davidson diagonalization with overlap

---- Real-time Memory Report at c_bands before calling an iterative solver
          2423 MiB given to the printing process from OS
             0 MiB allocation reported by mallinfo(arena+hblkhd)
        148743 MiB available memory on the node where the printing process lives
------------------
     ethr =  3.93E-08,  avg # of iterations =  1.3

     total cpu time spent up to now is     3498.5 secs

     total energy              =   -2780.16206904 Ry
     estimated scf accuracy    <       0.00004889 Ry

     iteration # 22     ecut=   150.00 Ry     beta= 0.70
     Davidson diagonalization with overlap

---- Real-time Memory Report at c_bands before calling an iterative solver
          2423 MiB given to the printing process from OS
             0 MiB allocation reported by mallinfo(arena+hblkhd)
        148751 MiB available memory on the node where the printing process lives
------------------
     ethr =  1.70E-08,  avg # of iterations =  3.2

     total cpu time spent up to now is     3680.4 secs

     total energy              =   -2780.16207916 Ry
     estimated scf accuracy    <       0.00000042 Ry

     iteration # 23     ecut=   150.00 Ry     beta= 0.70
     Davidson diagonalization with overlap

---- Real-time Memory Report at c_bands before calling an iterative solver
          2423 MiB given to the printing process from OS
             0 MiB allocation reported by mallinfo(arena+hblkhd)
        148674 MiB available memory on the node where the printing process lives
------------------
     ethr =  1.46E-10,  avg # of iterations =  5.9

     total cpu time spent up to now is     3946.1 secs

     total energy              =   -2780.16207968 Ry
     estimated scf accuracy    <       0.00000046 Ry

     iteration # 24     ecut=   150.00 Ry     beta= 0.70
     Davidson diagonalization with overlap

---- Real-time Memory Report at c_bands before calling an iterative solver
          2456 MiB given to the printing process from OS
             0 MiB allocation reported by mallinfo(arena+hblkhd)
        148481 MiB available memory on the node where the printing process lives
------------------
     ethr =  1.46E-10,  avg # of iterations =  2.0

     total cpu time spent up to now is     4108.2 secs

     total energy              =   -2780.16207969 Ry
     estimated scf accuracy    <       0.00000010 Ry

     iteration # 25     ecut=   150.00 Ry     beta= 0.70
     Davidson diagonalization with overlap

---- Real-time Memory Report at c_bands before calling an iterative solver
          2456 MiB given to the printing process from OS
             0 MiB allocation reported by mallinfo(arena+hblkhd)
        148483 MiB available memory on the node where the printing process lives
------------------
     ethr =  3.52E-11,  avg # of iterations =  4.0

     total cpu time spent up to now is     4292.7 secs

     total energy              =   -2780.16207970 Ry
     estimated scf accuracy    <       0.00000001 Ry

     iteration # 26     ecut=   150.00 Ry     beta= 0.70
     Davidson diagonalization with overlap

---- Real-time Memory Report at c_bands before calling an iterative solver
          2456 MiB given to the printing process from OS
             0 MiB allocation reported by mallinfo(arena+hblkhd)
        148439 MiB available memory on the node where the printing process lives
------------------
     ethr =  3.99E-12,  avg # of iterations =  4.1

     total cpu time spent up to now is     4498.1 secs

     End of self-consistent calculation

          k = 0.0000 0.0000 0.0000 ( 78839 PWs)   bands (ev):

    -5.5371  -5.0414  -5.0405  -4.7812  -4.7812  -4.7810  -4.7742  -4.6687
    -4.6684  -4.6681  -4.6679  -4.6675  -4.6674  -4.6464  -4.6463  -4.6460
    -3.3721  -3.3632  -3.3630  -3.3455  -3.3452  -3.3442  -3.3442  -3.3207
    -3.3200  -3.3198  -3.3181  -3.3177  -3.3173  -3.3148  -3.3139  -3.3137
    -3.3093  -3.3091  -3.2967  -3.2959  -3.2958  -3.2100  -3.2093  -3.2090
    -3.2089  -3.2082  -3.2082  -3.2076  -3.2070  -3.2069  -3.1760  -3.1751
    -3.1747  -3.1425  -3.1425  -3.1339  -3.1327  -3.1327  -3.1230  -3.1226
    -3.1222  -3.1084  -3.1083  -3.1079  -3.1076  -3.1075  -3.1070  -3.0899
    -3.0899  -3.0887  -3.0886  -3.0639  -3.0635  -3.0632  -3.0567  -3.0563
    -3.0556  -3.0548  -3.0533  -3.0533  -3.0518  -3.0517  -3.0311  -3.0302
    -3.0298  -2.9900  -2.9874  -1.8560  -1.8553  -1.8548  -1.7513  -1.6203
    -1.6191  -1.6185  -1.6184  -1.6176  -1.6170  -1.3018  -1.3009  -1.3000
     3.3231   3.7398   3.7408   3.7415   3.7417   3.7430   3.7453   3.8711
     3.8727   3.8744   4.9921   4.9939   4.9959   6.1110   6.1142   6.1149
     6.3831   6.3853   7.5398   7.5401   7.5410   8.0584   8.0616   8.0624
     8.3047   8.3048   8.3056   8.3057   8.3083   8.3100   8.3387   8.3438
     8.3448   8.3452   8.3454   8.3456   9.1740   9.1761   9.2091   9.2110
     9.2118   9.6570   9.6577   9.6584   9.6608  10.1311  10.1669  10.1676

     occupation numbers 
     1.0000   1.0000   1.0000   1.0000   1.0000   1.0000   1.0000   1.0000
     1.0000   1.0000   1.0000   1.0000   1.0000   1.0000   1.0000   1.0000
     1.0000   1.0000   1.0000   1.0000   1.0000   1.0000   1.0000   1.0000
     1.0000   1.0000   1.0000   1.0000   1.0000   1.0000   1.0000   1.0000
     1.0000   1.0000   1.0000   1.0000   1.0000   1.0000   1.0000   1.0000
     1.0000   1.0000   1.0000   1.0000   1.0000   1.0000   1.0000   1.0000
     1.0000   1.0000   1.0000   1.0000   1.0000   1.0000   1.0000   1.0000
     1.0000   1.0000   1.0000   1.0000   1.0000   1.0000   1.0000   1.0000
     1.0000   1.0000   1.0000   1.0000   1.0000   1.0000   1.0000   1.0000
     1.0000   1.0000   1.0000   1.0000   1.0000   1.0000   1.0000   1.0000
     1.0000   1.0000   1.0000   1.0000   1.0000   1.0000   1.0000   1.0000
     1.0000   1.0000   1.0000   1.0000   1.0000   1.0000   1.0000   1.0000
     1.0000   1.0000   1.0000   1.0000   1.0000   1.0000   1.0000   1.0000
     1.0000   1.0000   1.0000   1.0000   1.0000   1.0000   1.0000   1.0000
     1.0000   1.0000   1.0000   1.0000   1.0000   1.0000   1.0000   1.0000
     1.0000   1.0000   1.0000   1.0000   1.0000   1.0000   1.0000   1.0000
     1.0000   1.0000   1.0000   1.0000   1.0000   1.0000   1.0000   1.0000
     1.0000   1.0000   1.0000   1.0000   1.0000   1.0000   1.0000   1.0000

          k = 0.0000 0.0000 0.1228 ( 78809 PWs)   bands (ev):

    -5.5098  -5.1757  -4.9302  -4.7815  -4.7736  -4.7735  -4.7733  -4.6930
    -4.6929  -4.6927  -4.6529  -4.6526  -4.6522  -4.6452  -4.6448  -4.6445
    -3.3634  -3.3630  -3.3627  -3.3521  -3.3519  -3.3358  -3.3357  -3.3286
    -3.3284  -3.3282  -3.3197  -3.3193  -3.3193  -3.3114  -3.3113  -3.2966
    -3.2961  -3.2961  -3.2924  -3.2917  -3.2916  -3.2361  -3.2352  -3.2351
    -3.2012  -3.2011  -3.2009  -3.1954  -3.1947  -3.1945  -3.1836  -3.1825
    -3.1825  -3.1632  -3.1395  -3.1395  -3.1368  -3.1356  -3.1355  -3.1321
    -3.1320  -3.1318  -3.1095  -3.1092  -3.1091  -3.1037  -3.1037  -3.0918
    -3.0916  -3.0915  -3.0764  -3.0764  -3.0638  -3.0635  -3.0632  -3.0583
    -3.0576  -3.0570  -3.0536  -3.0535  -3.0514  -3.0503  -3.0501  -3.0332
    -3.0323  -3.0318  -2.7403  -1.8528  -1.8466  -1.8460  -1.8454  -1.7026
    -1.7021  -1.7020  -1.5264  -1.5261  -1.5260  -1.3179  -1.3171  -1.3162
     3.4995   3.6140   3.6150   3.6166   3.8059   3.8074   3.8090   3.9683
     3.9697   3.9714   4.8777   4.8795   4.8814   5.4964   6.2818   6.2849
     6.2856   7.2951   7.5750   7.5753   7.5763   7.8545   7.8573   7.8579
     8.0575   8.0581   8.0590   8.1749   8.1781   8.1788   8.5666   8.5678
     8.5685   8.6263   8.6290   8.6295   9.1603   9.1622   9.1628   9.1971
     9.1993   9.5055   9.5073   9.7777   9.8123   9.8136  10.1414  10.1422

     occupation numbers 
     1.0000   1.0000   1.0000   1.0000   1.0000   1.0000   1.0000   1.0000
     1.0000   1.0000   1.0000   1.0000   1.0000   1.0000   1.0000   1.0000
     1.0000   1.0000   1.0000   1.0000   1.0000   1.0000   1.0000   1.0000
     1.0000   1.0000   1.0000   1.0000   1.0000   1.0000   1.0000   1.0000
     1.0000   1.0000   1.0000   1.0000   1.0000   1.0000   1.0000   1.0000
     1.0000   1.0000   1.0000   1.0000   1.0000   1.0000   1.0000   1.0000
     1.0000   1.0000   1.0000   1.0000   1.0000   1.0000   1.0000   1.0000
     1.0000   1.0000   1.0000   1.0000   1.0000   1.0000   1.0000   1.0000
     1.0000   1.0000   1.0000   1.0000   1.0000   1.0000   1.0000   1.0000
     1.0000   1.0000   1.0000   1.0000   1.0000   1.0000   1.0000   1.0000
     1.0000   1.0000   1.0000   1.0000   1.0000   1.0000   1.0000   1.0000
     1.0000   1.0000   1.0000   1.0000   1.0000   1.0000   1.0000   1.0000
     1.0000   1.0000   1.0000   1.0000   1.0000   1.0000   1.0000   1.0000
     1.0000   1.0000   1.0000   1.0000   1.0000   1.0000   1.0000   1.0000
     1.0000   1.0000   1.0000   1.0000   1.0000   1.0000   1.0000   1.0000
     1.0000   1.0000   1.0000   1.0000   1.0000   1.0000   1.0000   1.0000
     1.0000   1.0000   1.0000   1.0000   1.0000   1.0000   1.0000   1.0000
     1.0000   1.0000   1.0000   1.0000   1.0000   1.0000   1.0000   1.0000

          k = 0.0000 0.0000 0.2456 ( 78828 PWs)   bands (ev):

    -5.4316  -5.3139  -4.8527  -4.8053  -4.7527  -4.7526  -4.7525  -4.7233
    -4.7230  -4.7228  -4.6474  -4.6470  -4.6460  -4.6427  -4.6417  -4.6416
    -3.3623  -3.3620  -3.3566  -3.3565  -3.3337  -3.3305  -3.3300  -3.3299
    -3.3267  -3.3266  -3.3249  -3.3243  -3.3242  -3.3169  -3.3167  -3.2802
    -3.2795  -3.2794  -3.2721  -3.2666  -3.2661  -3.2660  -3.2603  -3.2593
    -3.2593  -3.2307  -3.2301  -3.2301  -3.1837  -3.1836  -3.1833  -3.1619
    -3.1610  -3.1609  -3.1588  -3.1586  -3.1585  -3.1457  -3.1444  -3.1443
    -3.1312  -3.1312  -3.1179  -3.1178  -3.0933  -3.0931  -3.0929  -3.0865
    -3.0863  -3.0863  -3.0666  -3.0664  -3.0638  -3.0635  -3.0632  -3.0594
    -3.0587  -3.0582  -3.0572  -3.0571  -3.0460  -3.0455  -3.0451  -3.0384
    -3.0371  -3.0367  -2.4324  -2.1104  -1.8184  -1.8178  -1.8174  -1.7702
    -1.7695  -1.7693  -1.4377  -1.4372  -1.4368  -1.3648  -1.3641  -1.3634
     3.5982   3.5993   3.6008   3.6803   3.6815   3.6831   3.9818   4.2700
     4.2716   4.2733   4.5996   4.6014   4.6032   4.6755   6.7151   6.7181
     6.7188   7.2767   7.2797   7.2803   7.6783   7.6787   7.6796   7.8430
     7.8435   7.8444   8.1945   8.4314   8.4346   8.4351   8.6379   8.6409
     8.6412   8.8148   8.8162   8.8169   9.0220   9.0237   9.0244   9.0465
     9.2644   9.2665   9.3704   9.3723   9.9539   9.9549  10.0678  10.0687

     occupation numbers 
     1.0000   1.0000   1.0000   1.0000   1.0000   1.0000   1.0000   1.0000
     1.0000   1.0000   1.0000   1.0000   1.0000   1.0000   1.0000   1.0000
     1.0000   1.0000   1.0000   1.0000   1.0000   1.0000   1.0000   1.0000
     1.0000   1.0000   1.0000   1.0000   1.0000   1.0000   1.0000   1.0000
     1.0000   1.0000   1.0000   1.0000   1.0000   1.0000   1.0000   1.0000
     1.0000   1.0000   1.0000   1.0000   1.0000   1.0000   1.0000   1.0000
     1.0000   1.0000   1.0000   1.0000   1.0000   1.0000   1.0000   1.0000
     1.0000   1.0000   1.0000   1.0000   1.0000   1.0000   1.0000   1.0000
     1.0000   1.0000   1.0000   1.0000   1.0000   1.0000   1.0000   1.0000
     1.0000   1.0000   1.0000   1.0000   1.0000   1.0000   1.0000   1.0000
     1.0000   1.0000   1.0000   1.0000   1.0000   1.0000   1.0000   1.0000
     1.0000   1.0000   1.0000   1.0000   1.0000   1.0000   1.0000   1.0000
     1.0000   1.0000   1.0000   1.0000   1.0000   1.0000   1.0000   1.0000
     1.0000   1.0000   1.0000   1.0000   1.0000   1.0000   1.0000   1.0000
     1.0000   1.0000   1.0000   1.0000   1.0000   1.0000   1.0000   1.0000
     1.0000   1.0000   1.0000   1.0000   1.0000   1.0000   1.0000   1.0000
     1.0000   1.0000   1.0000   1.0000   1.0000   1.0000   1.0000   1.0000
     1.0000   1.0000   1.0000   1.0000   1.0000   1.0000   1.0000   1.0000

          k = 0.0000 0.2309 0.0000 ( 78863 PWs)   bands (ev):

    -5.4479  -4.9887  -4.9878  -4.8268  -4.7755  -4.7754  -4.7541  -4.6867
    -4.6865  -4.6655  -4.6654  -4.6653  -4.6650  -4.6519  -4.6476  -4.6474
    -3.3630  -3.3501  -3.3358  -3.3354  -3.3293  -3.3282  -3.3263  -3.3238
    -3.3236  -3.3160  -3.3121  -3.3096  -3.3051  -3.3049  -3.3046  -3.3044
    -3.2981  -3.2960  -3.2918  -3.2878  -3.2877  -3.2180  -3.2173  -3.2171
    -3.2168  -3.2161  -3.2156  -3.2131  -3.1952  -3.1952  -3.1744  -3.1739
    -3.1720  -3.1499  -3.1478  -3.1434  -3.1403  -3.1398  -3.1340  -3.1299
    -3.1296  -3.1288  -3.1273  -3.1207  -3.1200  -3.1167  -3.1166  -3.1163
    -3.1161  -3.0904  -3.0892  -3.0793  -3.0744  -3.0740  -3.0666  -3.0655
    -3.0646  -3.0642  -3.0640  -3.0627  -3.0620  -3.0502  -3.0405  -3.0398
    -3.0338  -2.8956  -2.8931  -2.2746  -1.9345  -1.9332  -1.8445  -1.8427
    -1.6829  -1.6260  -1.6248  -1.6241  -1.6233  -1.2069  -1.2061  -1.1760
     3.4602   3.9200   3.9210   3.9216   3.9252   4.0357   4.0368   4.1265
     4.1741   4.1766   5.1160   5.1195   5.2918   5.9260   6.0926   6.0946
     6.3529   6.3553   7.1529   7.1548   7.6702   7.7242   7.7256   7.7266
     7.7294   8.1475   8.1508   8.2581   8.2601   8.4185   8.4213   8.4721
     8.4865   8.5413   8.5440   8.5448   8.5458   8.8663   8.8684   8.9786
     9.1554   9.1568   9.3005   9.3203   9.5082   9.5102  10.0371  10.0814

     occupation numbers 
     1.0000   1.0000   1.0000   1.0000   1.0000   1.0000   1.0000   1.0000
     1.0000   1.0000   1.0000   1.0000   1.0000   1.0000   1.0000   1.0000
     1.0000   1.0000   1.0000   1.0000   1.0000   1.0000   1.0000   1.0000
     1.0000   1.0000   1.0000   1.0000   1.0000   1.0000   1.0000   1.0000
     1.0000   1.0000   1.0000   1.0000   1.0000   1.0000   1.0000   1.0000
     1.0000   1.0000   1.0000   1.0000   1.0000   1.0000   1.0000   1.0000
     1.0000   1.0000   1.0000   1.0000   1.0000   1.0000   1.0000   1.0000
     1.0000   1.0000   1.0000   1.0000   1.0000   1.0000   1.0000   1.0000
     1.0000   1.0000   1.0000   1.0000   1.0000   1.0000   1.0000   1.0000
     1.0000   1.0000   1.0000   1.0000   1.0000   1.0000   1.0000   1.0000
     1.0000   1.0000   1.0000   1.0000   1.0000   1.0000   1.0000   1.0000
     1.0000   1.0000   1.0000   1.0000   1.0000   1.0000   1.0000   1.0000
     1.0000   1.0000   1.0000   1.0000   1.0000   1.0000   1.0000   1.0000
     1.0000   1.0000   1.0000   1.0000   1.0000   1.0000   1.0000   1.0000
     1.0000   1.0000   1.0000   1.0000   1.0000   1.0000   1.0000   1.0000
     1.0000   1.0000   1.0000   1.0000   1.0000   1.0000   1.0000   1.0000
     1.0000   1.0000   1.0000   1.0000   1.0000   1.0000   1.0000   1.0000
     1.0000   1.0000   1.0000   1.0000   1.0000   1.0000   1.0000   1.0000

          k = 0.0000 0.2309 0.1228 ( 78862 PWs)   bands (ev):

    -5.4220  -5.1106  -4.8894  -4.8174  -4.7680  -4.7678  -4.7602  -4.7180
    -4.6891  -4.6889  -4.6656  -4.6518  -4.6517  -4.6507  -4.6459  -4.6453
    -3.3606  -3.3496  -3.3432  -3.3368  -3.3267  -3.3232  -3.3215  -3.3209
    -3.3205  -3.3191  -3.3159  -3.3140  -3.3138  -3.2995  -3.2939  -3.2921
    -3.2917  -3.2901  -3.2898  -3.2853  -3.2847  -3.2452  -3.2445  -3.2406
    -3.2138  -3.1975  -3.1974  -3.1932  -3.1906  -3.1901  -3.1844  -3.1834
    -3.1831  -3.1752  -3.1506  -3.1451  -3.1449  -3.1445  -3.1408  -3.1405
    -3.1345  -3.1344  -3.1212  -3.1164  -3.1162  -3.1066  -3.1047  -3.1042
    -3.1030  -3.1029  -3.0791  -3.0764  -3.0739  -3.0736  -3.0699  -3.0686
    -3.0668  -3.0654  -3.0608  -3.0605  -3.0575  -3.0517  -3.0434  -3.0430
    -3.0418  -3.0360  -2.6525  -2.2582  -1.9999  -1.9221  -1.9209  -1.7811
    -1.7335  -1.7326  -1.6644  -1.5052  -1.5047  -1.2289  -1.2281  -1.2147
     3.6287   3.7919   3.7937   3.9697   3.9712   3.9996   4.0614   4.1454
     4.1485   4.4338   5.0138   5.0172   5.2543   5.5277   6.0512   6.2441
     6.2459   7.1793   7.2045   7.2062   7.3950   7.3971   7.6885   7.7047
     8.0254   8.0260   8.1494   8.1503   8.1772   8.2541   8.2569   8.4997
     8.5702   8.6614   8.6748   8.7805   8.7811   8.8134   8.8153   8.9375
     9.0037   9.1435   9.2531   9.3411   9.3891   9.6812   9.9681  10.0523

     occupation numbers 
     1.0000   1.0000   1.0000   1.0000   1.0000   1.0000   1.0000   1.0000
     1.0000   1.0000   1.0000   1.0000   1.0000   1.0000   1.0000   1.0000
     1.0000   1.0000   1.0000   1.0000   1.0000   1.0000   1.0000   1.0000
     1.0000   1.0000   1.0000   1.0000   1.0000   1.0000   1.0000   1.0000
     1.0000   1.0000   1.0000   1.0000   1.0000   1.0000   1.0000   1.0000
     1.0000   1.0000   1.0000   1.0000   1.0000   1.0000   1.0000   1.0000
     1.0000   1.0000   1.0000   1.0000   1.0000   1.0000   1.0000   1.0000
     1.0000   1.0000   1.0000   1.0000   1.0000   1.0000   1.0000   1.0000
     1.0000   1.0000   1.0000   1.0000   1.0000   1.0000   1.0000   1.0000
     1.0000   1.0000   1.0000   1.0000   1.0000   1.0000   1.0000   1.0000
     1.0000   1.0000   1.0000   1.0000   1.0000   1.0000   1.0000   1.0000
     1.0000   1.0000   1.0000   1.0000   1.0000   1.0000   1.0000   1.0000
     1.0000   1.0000   1.0000   1.0000   1.0000   1.0000   1.0000   1.0000
     1.0000   1.0000   1.0000   1.0000   1.0000   1.0000   1.0000   1.0000
     1.0000   1.0000   1.0000   1.0000   1.0000   1.0000   1.0000   1.0000
     1.0000   1.0000   1.0000   1.0000   1.0000   1.0000   1.0000   1.0000
     1.0000   1.0000   1.0000   1.0000   1.0000   1.0000   1.0000   1.0000
     1.0000   1.0000   1.0000   1.0000   1.0000   1.0000   1.0000   1.0000

          k = 0.0000 0.2309 0.2456 ( 78820 PWs)   bands (ev):

    -5.3483  -5.2382  -4.8215  -4.7917  -4.7806  -4.7556  -4.7473  -4.7472
    -4.7184  -4.7182  -4.6559  -4.6502  -4.6473  -4.6465  -4.6426  -4.6418
    -3.3555  -3.3493  -3.3482  -3.3423  -3.3257  -3.3206  -3.3182  -3.3179
    -3.3170  -3.3144  -3.3140  -3.3101  -3.3095  -3.2995  -3.2924  -3.2874
    -3.2870  -3.2809  -3.2720  -3.2715  -3.2643  -3.2626  -3.2564  -3.2561
    -3.2441  -3.2337  -3.2256  -3.2253  -3.1816  -3.1738  -3.1733  -3.1732
    -3.1697  -3.1690  -3.1624  -3.1587  -3.1539  -3.1538  -3.1529  -3.1524
    -3.1322  -3.1316  -3.1188  -3.1078  -3.1070  -3.1024  -3.1020  -3.1013
    -3.0972  -3.0970  -3.0834  -3.0783  -3.0740  -3.0731  -3.0724  -3.0723
    -3.0683  -3.0670  -3.0656  -3.0576  -3.0574  -3.0563  -3.0506  -3.0495
    -3.0488  -3.0414  -2.3485  -2.2083  -2.1225  -2.0323  -1.8848  -1.8835
    -1.8215  -1.8204  -1.4823  -1.3890  -1.3885  -1.3234  -1.2921  -1.2916
     3.7705   3.7719   3.8462   3.8480   3.9264   3.9588   4.0899   4.4389
     4.4422   4.7432   4.7511   4.7549   4.7582   5.0499   6.4665   6.6138
     6.6151   7.0303   7.0328   7.0563   7.3726   7.3739   7.6883   7.6886
     7.8059   7.9551   7.9672   8.3326   8.3343   8.4469   8.4476   8.5337
     8.7036   8.7057   8.7113   8.7375   8.7538   8.7805   8.7813   8.8143
     8.9169   9.0770   9.1187   9.1927   9.6147   9.8131   9.8400   9.9686

     occupation numbers 
     1.0000   1.0000   1.0000   1.0000   1.0000   1.0000   1.0000   1.0000
     1.0000   1.0000   1.0000   1.0000   1.0000   1.0000   1.0000   1.0000
     1.0000   1.0000   1.0000   1.0000   1.0000   1.0000   1.0000   1.0000
     1.0000   1.0000   1.0000   1.0000   1.0000   1.0000   1.0000   1.0000
     1.0000   1.0000   1.0000   1.0000   1.0000   1.0000   1.0000   1.0000
     1.0000   1.0000   1.0000   1.0000   1.0000   1.0000   1.0000   1.0000
     1.0000   1.0000   1.0000   1.0000   1.0000   1.0000   1.0000   1.0000
     1.0000   1.0000   1.0000   1.0000   1.0000   1.0000   1.0000   1.0000
     1.0000   1.0000   1.0000   1.0000   1.0000   1.0000   1.0000   1.0000
     1.0000   1.0000   1.0000   1.0000   1.0000   1.0000   1.0000   1.0000
     1.0000   1.0000   1.0000   1.0000   1.0000   1.0000   1.0000   1.0000
     1.0000   1.0000   1.0000   1.0000   1.0000   1.0000   1.0000   1.0000
     1.0000   1.0000   1.0000   1.0000   1.0000   1.0000   1.0000   1.0000
     1.0000   1.0000   1.0000   1.0000   1.0000   1.0000   1.0000   1.0000
     1.0000   1.0000   1.0000   1.0000   1.0000   1.0000   1.0000   1.0000
     1.0000   1.0000   1.0000   1.0000   1.0000   1.0000   1.0000   1.0000
     1.0000   1.0000   1.0000   1.0000   1.0000   1.0000   1.0000   1.0000
     1.0000   1.0000   1.0000   1.0000   1.0000   1.0000   1.0000   1.0000

          k = 0.0000 0.4619 0.0000 ( 78795 PWs)   bands (ev):

    -5.2225  -4.9787  -4.8666  -4.8660  -4.7656  -4.7654  -4.7513  -4.7510
    -4.7102  -4.6720  -4.6615  -4.6612  -4.6608  -4.6606  -4.6503  -4.6498
    -3.3424  -3.3420  -3.3356  -3.3215  -3.3163  -3.3112  -3.3106  -3.3023
    -3.3013  -3.3010  -3.2887  -3.2878  -3.2780  -3.2779  -3.2777  -3.2774
    -3.2711  -3.2484  -3.2481  -3.2460  -3.2443  -3.2432  -3.2309  -3.2303
    -3.2299  -3.2295  -3.2289  -3.1936  -3.1900  -3.1837  -3.1837  -3.1770
    -3.1765  -3.1763  -3.1682  -3.1628  -3.1626  -3.1601  -3.1582  -3.1499
    -3.1491  -3.1454  -3.1452  -3.1446  -3.1444  -3.1388  -3.1385  -3.1371
    -3.1368  -3.1139  -3.0896  -3.0884  -3.0875  -3.0867  -3.0852  -3.0815
    -3.0801  -3.0709  -3.0708  -3.0704  -3.0695  -3.0595  -3.0585  -3.0459
    -3.0403  -2.8256  -2.6693  -2.6668  -2.2930  -2.2907  -2.0249  -2.0234
    -1.6358  -1.6341  -1.6335  -1.6324  -1.4971  -1.2678  -1.0909  -1.0906
     3.8446   4.2803   4.2822   4.2826   4.2868   4.3105   4.4453   4.4476
     5.1639   5.1670   5.2079   5.2110   5.6989   6.0516   6.0546   6.1757
     6.1759   6.4911   6.4931   6.6975   7.0260   7.0363   7.0374   7.0384
     7.0416   7.9890   8.0288   8.1331   8.1354   8.2519   8.2538   8.3251
     8.3276   8.3617   8.3636   8.5209   8.5866   8.5897   8.5907   8.5915
     8.7283   8.7309   9.1418   9.1440   9.1893   9.5400   9.7317   9.8416

     occupation numbers 
     1.0000   1.0000   1.0000   1.0000   1.0000   1.0000   1.0000   1.0000
     1.0000   1.0000   1.0000   1.0000   1.0000   1.0000   1.0000   1.0000
     1.0000   1.0000   1.0000   1.0000   1.0000   1.0000   1.0000   1.0000
     1.0000   1.0000   1.0000   1.0000   1.0000   1.0000   1.0000   1.0000
     1.0000   1.0000   1.0000   1.0000   1.0000   1.0000   1.0000   1.0000
     1.0000   1.0000   1.0000   1.0000   1.0000   1.0000   1.0000   1.0000
     1.0000   1.0000   1.0000   1.0000   1.0000   1.0000   1.0000   1.0000
     1.0000   1.0000   1.0000   1.0000   1.0000   1.0000   1.0000   1.0000
     1.0000   1.0000   1.0000   1.0000   1.0000   1.0000   1.0000   1.0000
     1.0000   1.0000   1.0000   1.0000   1.0000   1.0000   1.0000   1.0000
     1.0000   1.0000   1.0000   1.0000   1.0000   1.0000   1.0000   1.0000
     1.0000   1.0000   1.0000   1.0000   1.0000   1.0000   1.0000   1.0000
     1.0000   1.0000   1.0000   1.0000   1.0000   1.0000   1.0000   1.0000
     1.0000   1.0000   1.0000   1.0000   1.0000   1.0000   1.0000   1.0000
     1.0000   1.0000   1.0000   1.0000   1.0000   1.0000   1.0000   1.0000
     1.0000   1.0000   1.0000   1.0000   1.0000   1.0000   1.0000   1.0000
     1.0000   1.0000   1.0000   1.0000   1.0000   1.0000   1.0000   1.0000
     1.0000   1.0000   1.0000   1.0000   1.0000   1.0000   1.0000   1.0000

          k = 0.0000 0.4619 0.1228 ( 78818 PWs)   bands (ev):

    -5.2012  -4.9642  -4.9560  -4.8048  -4.7971  -4.7582  -4.7580  -4.7138
    -4.7121  -4.6825  -4.6823  -4.6729  -4.6516  -4.6510  -4.6467  -4.6459
    -3.3373  -3.3370  -3.3352  -3.3206  -3.3202  -3.3180  -3.3124  -3.3007
    -3.2996  -3.2980  -3.2863  -3.2849  -3.2848  -3.2763  -3.2748  -3.2726
    -3.2724  -3.2613  -3.2540  -3.2538  -3.2481  -3.2472  -3.2471  -3.2361
    -3.2266  -3.2060  -3.2055  -3.1959  -3.1956  -3.1952  -3.1923  -3.1755
    -3.1745  -3.1742  -3.1739  -3.1589  -3.1587  -3.1566  -3.1528  -3.1488
    -3.1487  -3.1442  -3.1429  -3.1379  -3.1377  -3.1372  -3.1360  -3.1347
    -3.1344  -3.1125  -3.1032  -3.0917  -3.0844  -3.0839  -3.0826  -3.0771
    -3.0763  -3.0752  -3.0694  -3.0675  -3.0673  -3.0637  -3.0625  -3.0478
    -3.0424  -2.8591  -2.8068  -2.4947  -2.4133  -2.0450  -2.0092  -2.0077
    -1.7713  -1.7700  -1.5855  -1.4827  -1.4818  -1.3368  -1.1207  -1.1205
     3.9829   4.1678   4.1699   4.3482   4.3704   4.3731   4.4792   4.4825
     4.8757   5.1501   5.1531   5.4705   5.4894   5.8005   6.2555   6.2567
     6.5876   6.5884   6.5924   6.6231   6.7446   6.7464   7.0696   7.3582
     7.3599   7.5088   7.8858   7.9336   8.0612   8.1324   8.1333   8.1889
     8.1911   8.4235   8.4268   8.5035   8.5500   8.6799   8.8250   8.8412
     8.8424   8.9437   8.9659   9.2110   9.3493   9.4969   9.6914   9.8052

     occupation numbers 
     1.0000   1.0000   1.0000   1.0000   1.0000   1.0000   1.0000   1.0000
     1.0000   1.0000   1.0000   1.0000   1.0000   1.0000   1.0000   1.0000
     1.0000   1.0000   1.0000   1.0000   1.0000   1.0000   1.0000   1.0000
     1.0000   1.0000   1.0000   1.0000   1.0000   1.0000   1.0000   1.0000
     1.0000   1.0000   1.0000   1.0000   1.0000   1.0000   1.0000   1.0000
     1.0000   1.0000   1.0000   1.0000   1.0000   1.0000   1.0000   1.0000
     1.0000   1.0000   1.0000   1.0000   1.0000   1.0000   1.0000   1.0000
     1.0000   1.0000   1.0000   1.0000   1.0000   1.0000   1.0000   1.0000
     1.0000   1.0000   1.0000   1.0000   1.0000   1.0000   1.0000   1.0000
     1.0000   1.0000   1.0000   1.0000   1.0000   1.0000   1.0000   1.0000
     1.0000   1.0000   1.0000   1.0000   1.0000   1.0000   1.0000   1.0000
     1.0000   1.0000   1.0000   1.0000   1.0000   1.0000   1.0000   1.0000
     1.0000   1.0000   1.0000   1.0000   1.0000   1.0000   1.0000   1.0000
     1.0000   1.0000   1.0000   1.0000   1.0000   1.0000   1.0000   1.0000
     1.0000   1.0000   1.0000   1.0000   1.0000   1.0000   1.0000   1.0000
     1.0000   1.0000   1.0000   1.0000   1.0000   1.0000   1.0000   1.0000
     1.0000   1.0000   1.0000   1.0000   1.0000   1.0000   1.0000   1.0000
     1.0000   1.0000   1.0000   1.0000   1.0000   1.0000   1.0000   1.0000

          k = 0.0000 0.4619 0.2456 ( 78849 PWs)   bands (ev):

    -5.1412  -5.0537  -4.9237  -4.8662  -4.7519  -4.7381  -4.7379  -4.7257
    -4.7101  -4.7099  -4.6893  -4.6769  -4.6483  -4.6476  -4.6432  -4.6425
    -3.3334  -3.3282  -3.3229  -3.3226  -3.3207  -3.3171  -3.3165  -3.3083
    -3.3011  -3.3009  -3.2912  -3.2904  -3.2823  -3.2769  -3.2741  -3.2738
    -3.2681  -3.2650  -3.2646  -3.2645  -3.2541  -3.2501  -3.2351  -3.2347
    -3.2145  -3.2142  -3.2116  -3.1994  -3.1948  -3.1900  -3.1894  -3.1873
    -3.1798  -3.1794  -3.1700  -3.1631  -3.1527  -3.1522  -3.1505  -3.1502
    -3.1385  -3.1360  -3.1343  -3.1311  -3.1303  -3.1299  -3.1288  -3.1275
    -3.1274  -3.1166  -3.1086  -3.1005  -3.0832  -3.0830  -3.0786  -3.0782
    -3.0719  -3.0708  -3.0687  -3.0676  -3.0635  -3.0598  -3.0586  -3.0532
    -3.0483  -2.9870  -2.7487  -2.6464  -2.1144  -1.9618  -1.9603  -1.8820
    -1.8806  -1.8157  -1.7757  -1.5225  -1.3329  -1.3324  -1.2057  -1.2055
     4.1538   4.1556   4.2355   4.2384   4.3585   4.4593   4.6371   4.7280
     4.7315   4.8838   4.9755   4.9788   5.8068   5.9661   6.3573   6.3593
     6.5113   6.5131   6.5595   6.9163   6.9759   6.9774   7.0393   7.1708
     7.4929   7.4950   7.6175   7.6432   7.7529   7.7560   7.9965   7.9987
     8.1562   8.3073   8.6348   8.6536   8.6567   8.7696   8.8419   8.8437
     9.0509   9.1890   9.2074   9.2414   9.3742   9.5389   9.5424   9.7009

     occupation numbers 
     1.0000   1.0000   1.0000   1.0000   1.0000   1.0000   1.0000   1.0000
     1.0000   1.0000   1.0000   1.0000   1.0000   1.0000   1.0000   1.0000
     1.0000   1.0000   1.0000   1.0000   1.0000   1.0000   1.0000   1.0000
     1.0000   1.0000   1.0000   1.0000   1.0000   1.0000   1.0000   1.0000
     1.0000   1.0000   1.0000   1.0000   1.0000   1.0000   1.0000   1.0000
     1.0000   1.0000   1.0000   1.0000   1.0000   1.0000   1.0000   1.0000
     1.0000   1.0000   1.0000   1.0000   1.0000   1.0000   1.0000   1.0000
     1.0000   1.0000   1.0000   1.0000   1.0000   1.0000   1.0000   1.0000
     1.0000   1.0000   1.0000   1.0000   1.0000   1.0000   1.0000   1.0000
     1.0000   1.0000   1.0000   1.0000   1.0000   1.0000   1.0000   1.0000
     1.0000   1.0000   1.0000   1.0000   1.0000   1.0000   1.0000   1.0000
     1.0000   1.0000   1.0000   1.0000   1.0000   1.0000   1.0000   1.0000
     1.0000   1.0000   1.0000   1.0000   1.0000   1.0000   1.0000   1.0000
     1.0000   1.0000   1.0000   1.0000   1.0000   1.0000   1.0000   1.0000
     1.0000   1.0000   1.0000   1.0000   1.0000   1.0000   1.0000   1.0000
     1.0000   1.0000   1.0000   1.0000   1.0000   1.0000   1.0000   1.0000
     1.0000   1.0000   1.0000   1.0000   1.0000   1.0000   1.0000   1.0000
     1.0000   1.0000   1.0000   1.0000   1.0000   1.0000   1.0000   1.0000

          k = 0.2000 0.3464 0.0000 ( 78840 PWs)   bands (ev):

    -5.2903  -4.9016  -4.9009  -4.8661  -4.8657  -4.7261  -4.7225  -4.7026
    -4.7022  -4.7020  -4.7016  -4.6577  -4.6575  -4.6532  -4.6461  -4.6441
    -3.3483  -3.3410  -3.3312  -3.3173  -3.3167  -3.3165  -3.3162  -3.3019
    -3.3009  -3.2979  -3.2969  -3.2967  -3.2964  -3.2919  -3.2913  -3.2808
    -3.2788  -3.2785  -3.2755  -3.2446  -3.2323  -3.2313  -3.2313  -3.2304
    -3.2291  -3.2280  -3.2243  -3.2082  -3.2076  -3.1798  -3.1791  -3.1719
    -3.1712  -3.1698  -3.1694  -3.1616  -3.1563  -3.1541  -3.1459  -3.1449
    -3.1445  -3.1440  -3.1437  -3.1424  -3.1364  -3.1363  -3.1354  -3.1223
    -3.1221  -3.0944  -3.0943  -3.0916  -3.0900  -3.0894  -3.0865  -3.0796
    -3.0787  -3.0718  -3.0715  -3.0705  -3.0702  -3.0577  -3.0470  -3.0466
    -3.0448  -2.7428  -2.7403  -2.5005  -2.4988  -2.0025  -2.0002  -1.9997
    -1.9979  -1.6362  -1.5551  -1.4371  -1.4361  -1.2096  -1.1574  -1.1572
     3.7220   3.9986   3.9993   4.2744   4.3932   4.3955   4.6415   4.6439
     4.6444   4.6475   5.0965   5.4640   5.4670   5.8969   6.1264   6.1287
     6.1953   6.1985   6.7728   6.7921   6.7956   7.4389   7.4406   7.5693
     7.8240   7.9506   7.9524   7.9533   7.9560   8.0958   8.1061   8.4519
     8.4528   8.4556   8.4559   8.5832   8.5860   8.6786   8.6804   8.8072
     8.8109   8.8141   9.0751   9.0765   9.1710   9.1723   9.8262   9.8427

     occupation numbers 
     1.0000   1.0000   1.0000   1.0000   1.0000   1.0000   1.0000   1.0000
     1.0000   1.0000   1.0000   1.0000   1.0000   1.0000   1.0000   1.0000
     1.0000   1.0000   1.0000   1.0000   1.0000   1.0000   1.0000   1.0000
     1.0000   1.0000   1.0000   1.0000   1.0000   1.0000   1.0000   1.0000
     1.0000   1.0000   1.0000   1.0000   1.0000   1.0000   1.0000   1.0000
     1.0000   1.0000   1.0000   1.0000   1.0000   1.0000   1.0000   1.0000
     1.0000   1.0000   1.0000   1.0000   1.0000   1.0000   1.0000   1.0000
     1.0000   1.0000   1.0000   1.0000   1.0000   1.0000   1.0000   1.0000
     1.0000   1.0000   1.0000   1.0000   1.0000   1.0000   1.0000   1.0000
     1.0000   1.0000   1.0000   1.0000   1.0000   1.0000   1.0000   1.0000
     1.0000   1.0000   1.0000   1.0000   1.0000   1.0000   1.0000   1.0000
     1.0000   1.0000   1.0000   1.0000   1.0000   1.0000   1.0000   1.0000
     1.0000   1.0000   1.0000   1.0000   1.0000   1.0000   1.0000   1.0000
     1.0000   1.0000   1.0000   1.0000   1.0000   1.0000   1.0000   1.0000
     1.0000   1.0000   1.0000   1.0000   1.0000   1.0000   1.0000   1.0000
     1.0000   1.0000   1.0000   1.0000   1.0000   1.0000   1.0000   1.0000
     1.0000   1.0000   1.0000   1.0000   1.0000   1.0000   1.0000   1.0000
     1.0000   1.0000   1.0000   1.0000   1.0000   1.0000   1.0000   1.0000

          k = 0.2000 0.3464 0.1228 ( 78810 PWs)   bands (ev):

    -5.2675  -5.0010  -4.8552  -4.8548  -4.8233  -4.7394  -4.7390  -4.7267
    -4.7202  -4.6772  -4.6767  -4.6618  -4.6573  -4.6572  -4.6497  -4.6383
    -3.3429  -3.3403  -3.3301  -3.3252  -3.3139  -3.3135  -3.3129  -3.3064
    -3.3059  -3.3050  -3.2945  -3.2942  -3.2918  -3.2877  -3.2827  -3.2811
    -3.2805  -3.2760  -3.2636  -3.2583  -3.2523  -3.2515  -3.2494  -3.2228
    -3.2165  -3.2160  -3.2118  -3.2108  -3.1980  -3.1853  -3.1790  -3.1778
    -3.1770  -3.1713  -3.1706  -3.1661  -3.1542  -3.1538  -3.1535  -3.1496
    -3.1407  -3.1366  -3.1357  -3.1350  -3.1332  -3.1328  -3.1311  -3.1200
    -3.1133  -3.1001  -3.0918  -3.0915  -3.0913  -3.0893  -3.0824  -3.0790
    -3.0781  -3.0766  -3.0757  -3.0671  -3.0663  -3.0622  -3.0496  -3.0492
    -3.0464  -2.9223  -2.4907  -2.4820  -2.4803  -2.1849  -2.1836  -1.7845
    -1.7837  -1.6468  -1.6276  -1.5032  -1.3670  -1.2204  -1.2097  -1.2095
     3.8720   3.9276   4.1722   4.2104   4.3482   4.3500   4.4383   4.4391
     4.9130   4.9144   4.9860   5.5233   5.5334   5.5358   5.9244   6.1537
     6.1557   6.4781   6.8290   6.9405   7.1390   7.4626   7.4643   7.5252
     7.5271   7.6125   7.9037   7.9976   7.9992   8.0344   8.0839   8.2419
     8.3323   8.3329   8.3450   8.7676   8.7739   8.8312   8.8323   8.8592
     8.8626   8.8646   9.0344   9.0353   9.0995   9.3555   9.7909   9.7993

     occupation numbers 
     1.0000   1.0000   1.0000   1.0000   1.0000   1.0000   1.0000   1.0000
     1.0000   1.0000   1.0000   1.0000   1.0000   1.0000   1.0000   1.0000
     1.0000   1.0000   1.0000   1.0000   1.0000   1.0000   1.0000   1.0000
     1.0000   1.0000   1.0000   1.0000   1.0000   1.0000   1.0000   1.0000
     1.0000   1.0000   1.0000   1.0000   1.0000   1.0000   1.0000   1.0000
     1.0000   1.0000   1.0000   1.0000   1.0000   1.0000   1.0000   1.0000
     1.0000   1.0000   1.0000   1.0000   1.0000   1.0000   1.0000   1.0000
     1.0000   1.0000   1.0000   1.0000   1.0000   1.0000   1.0000   1.0000
     1.0000   1.0000   1.0000   1.0000   1.0000   1.0000   1.0000   1.0000
     1.0000   1.0000   1.0000   1.0000   1.0000   1.0000   1.0000   1.0000
     1.0000   1.0000   1.0000   1.0000   1.0000   1.0000   1.0000   1.0000
     1.0000   1.0000   1.0000   1.0000   1.0000   1.0000   1.0000   1.0000
     1.0000   1.0000   1.0000   1.0000   1.0000   1.0000   1.0000   1.0000
     1.0000   1.0000   1.0000   1.0000   1.0000   1.0000   1.0000   1.0000
     1.0000   1.0000   1.0000   1.0000   1.0000   1.0000   1.0000   1.0000
     1.0000   1.0000   1.0000   1.0000   1.0000   1.0000   1.0000   1.0000
     1.0000   1.0000   1.0000   1.0000   1.0000   1.0000   1.0000   1.0000
     1.0000   1.0000   1.0000   1.0000   1.0000   1.0000   1.0000   1.0000

          k = 0.2000 0.3464 0.2456 ( 78818 PWs)   bands (ev):

    -5.2030  -5.1081  -4.8252  -4.8249  -4.7832  -4.7828  -4.7714  -4.7411
    -4.7044  -4.6825  -4.6646  -4.6638  -4.6575  -4.6572  -4.6452  -4.6384
    -3.3379  -3.3324  -3.3277  -3.3270  -3.3196  -3.3109  -3.3102  -3.3072
    -3.3068  -3.3047  -3.2971  -3.2932  -3.2928  -3.2878  -3.2839  -3.2799
    -3.2795  -3.2776  -3.2684  -3.2604  -3.2534  -3.2528  -3.2403  -3.2340
    -3.2333  -3.2159  -3.2126  -3.2006  -3.1962  -3.1955  -3.1841  -3.1832
    -3.1753  -3.1674  -3.1663  -3.1614  -3.1609  -3.1603  -3.1544  -3.1417
    -3.1350  -3.1306  -3.1302  -3.1289  -3.1285  -3.1278  -3.1173  -3.1050
    -3.1038  -3.1031  -3.0956  -3.0906  -3.0865  -3.0862  -3.0856  -3.0810
    -3.0801  -3.0796  -3.0778  -3.0724  -3.0633  -3.0627  -3.0559  -3.0552
    -3.0489  -3.0288  -2.4253  -2.4238  -2.3271  -2.3256  -2.1894  -1.8845
    -1.6020  -1.5600  -1.5579  -1.5575  -1.3538  -1.3535  -1.3031  -1.2523
     3.9601   4.0741   4.2809   4.2951   4.2963   4.3187   4.3197   4.4279
     4.7246   4.8616   5.2107   5.2123   5.4682   5.4697   6.0274   6.2164
     6.4401   6.4410   6.9693   6.9705   7.3531   7.3797   7.4808   7.5518
     7.5534   7.7271   7.7283   7.7414   7.7736   7.8015   7.8632   7.9536
     8.3145   8.6016   8.6021   8.6191   8.7380   8.7970   8.8211   8.8226
     9.0308   9.0334   9.0359   9.0372   9.3808   9.5380   9.6475   9.6902

     occupation numbers 
     1.0000   1.0000   1.0000   1.0000   1.0000   1.0000   1.0000   1.0000
     1.0000   1.0000   1.0000   1.0000   1.0000   1.0000   1.0000   1.0000
     1.0000   1.0000   1.0000   1.0000   1.0000   1.0000   1.0000   1.0000
     1.0000   1.0000   1.0000   1.0000   1.0000   1.0000   1.0000   1.0000
     1.0000   1.0000   1.0000   1.0000   1.0000   1.0000   1.0000   1.0000
     1.0000   1.0000   1.0000   1.0000   1.0000   1.0000   1.0000   1.0000
     1.0000   1.0000   1.0000   1.0000   1.0000   1.0000   1.0000   1.0000
     1.0000   1.0000   1.0000   1.0000   1.0000   1.0000   1.0000   1.0000
     1.0000   1.0000   1.0000   1.0000   1.0000   1.0000   1.0000   1.0000
     1.0000   1.0000   1.0000   1.0000   1.0000   1.0000   1.0000   1.0000
     1.0000   1.0000   1.0000   1.0000   1.0000   1.0000   1.0000   1.0000
     1.0000   1.0000   1.0000   1.0000   1.0000   1.0000   1.0000   1.0000
     1.0000   1.0000   1.0000   1.0000   1.0000   1.0000   1.0000   1.0000
     1.0000   1.0000   1.0000   1.0000   1.0000   1.0000   1.0000   1.0000
     1.0000   1.0000   1.0000   1.0000   1.0000   1.0000   1.0000   1.0000
     1.0000   1.0000   1.0000   1.0000   1.0000   1.0000   1.0000   1.0000
     1.0000   1.0000   1.0000   1.0000   1.0000   1.0000   1.0000   1.0000
     1.0000   1.0000   1.0000   1.0000   1.0000   1.0000   1.0000   1.0000

          k = 0.2000 0.5774 0.0000 ( 78832 PWs)   bands (ev):

    -5.0563  -5.0562  -4.8807  -4.7860  -4.7858  -4.7856  -4.7852  -4.7078
    -4.7076  -4.7000  -4.6834  -4.6830  -4.6605  -4.6600  -4.6385  -4.6374
    -3.3593  -3.3272  -3.3154  -3.3148  -3.3112  -3.3110  -3.2946  -3.2944
    -3.2940  -3.2932  -3.2790  -3.2785  -3.2707  -3.2658  -3.2656  -3.2653
    -3.2641  -3.2597  -3.2594  -3.2457  -3.2452  -3.2449  -3.2441  -3.2368
    -3.2357  -3.2230  -3.2219  -3.2180  -3.1990  -3.1908  -3.1802  -3.1758
    -3.1755  -3.1709  -3.1696  -3.1654  -3.1651  -3.1646  -3.1641  -3.1637
    -3.1629  -3.1564  -3.1455  -3.1309  -3.1303  -3.1273  -3.1271  -3.1265
    -3.1193  -3.1185  -3.1042  -3.0997  -3.0880  -3.0878  -3.0841  -3.0837
    -3.0835  -3.0823  -3.0724  -3.0717  -3.0682  -3.0627  -3.0616  -3.0605
    -2.9550  -2.9544  -2.5701  -2.4392  -2.4370  -2.4363  -2.4348  -2.0545
    -2.0523  -1.5418  -1.3650  -1.3642  -1.3402  -1.3397  -1.1790  -1.1526
     4.1540   4.1562   4.1696   4.1740   4.5014   4.7356   4.8949   4.9232
     4.9264   5.4865   5.5909   5.5954   5.5964   5.5977   5.9020   5.9781
     6.2967   6.2997   6.3178   6.3194   6.9014   7.0030   7.0037   7.2450
     7.6757   7.6988   7.7003   7.7032   8.0857   8.0866   8.1820   8.1848
     8.1868   8.1878   8.4116   8.4136   8.6591   8.6602   8.6605   8.6638
     8.7274   8.7290   8.7772   8.9532   9.4299   9.4309   9.4378   9.4393

     occupation numbers 
     1.0000   1.0000   1.0000   1.0000   1.0000   1.0000   1.0000   1.0000
     1.0000   1.0000   1.0000   1.0000   1.0000   1.0000   1.0000   1.0000
     1.0000   1.0000   1.0000   1.0000   1.0000   1.0000   1.0000   1.0000
     1.0000   1.0000   1.0000   1.0000   1.0000   1.0000   1.0000   1.0000
     1.0000   1.0000   1.0000   1.0000   1.0000   1.0000   1.0000   1.0000
     1.0000   1.0000   1.0000   1.0000   1.0000   1.0000   1.0000   1.0000
     1.0000   1.0000   1.0000   1.0000   1.0000   1.0000   1.0000   1.0000
     1.0000   1.0000   1.0000   1.0000   1.0000   1.0000   1.0000   1.0000
     1.0000   1.0000   1.0000   1.0000   1.0000   1.0000   1.0000   1.0000
     1.0000   1.0000   1.0000   1.0000   1.0000   1.0000   1.0000   1.0000
     1.0000   1.0000   1.0000   1.0000   1.0000   1.0000   1.0000   1.0000
     1.0000   1.0000   1.0000   1.0000   1.0000   1.0000   1.0000   1.0000
     1.0000   1.0000   1.0000   1.0000   1.0000   1.0000   1.0000   1.0000
     1.0000   1.0000   1.0000   1.0000   1.0000   1.0000   1.0000   1.0000
     1.0000   1.0000   1.0000   1.0000   1.0000   1.0000   1.0000   1.0000
     1.0000   1.0000   1.0000   1.0000   1.0000   1.0000   1.0000   1.0000
     1.0000   1.0000   1.0000   1.0000   1.0000   1.0000   1.0000   1.0000
     1.0000   1.0000   1.0000   1.0000   1.0000   1.0000   1.0000   1.0000

          k = 0.2000 0.5774 0.1228 ( 78804 PWs)   bands (ev):

    -5.0394  -5.0392  -4.8691  -4.8509  -4.8507  -4.7468  -4.7376  -4.7374
    -4.6951  -4.6852  -4.6847  -4.6809  -4.6598  -4.6579  -4.6476  -4.6360
    -3.3536  -3.3231  -3.3133  -3.3129  -3.3115  -3.3114  -3.3046  -3.3039
    -3.2861  -3.2846  -3.2839  -3.2779  -3.2775  -3.2771  -3.2764  -3.2740
    -3.2573  -3.2535  -3.2529  -3.2514  -3.2493  -3.2483  -3.2458  -3.2326
    -3.2266  -3.2254  -3.2205  -3.2105  -3.2042  -3.2030  -3.1843  -3.1710
    -3.1706  -3.1693  -3.1673  -3.1647  -3.1644  -3.1640  -3.1598  -3.1591
    -3.1542  -3.1468  -3.1380  -3.1350  -3.1329  -3.1324  -3.1302  -3.1273
    -3.1147  -3.1140  -3.1024  -3.0941  -3.0934  -3.0917  -3.0909  -3.0861
    -3.0767  -3.0763  -3.0756  -3.0739  -3.0717  -3.0644  -3.0634  -3.0622
    -2.9385  -2.9379  -2.6407  -2.6401  -2.5512  -2.2452  -2.1821  -2.1820
    -1.8265  -1.5338  -1.4218  -1.4175  -1.4170  -1.3065  -1.2099  -1.1877
     4.1486   4.2618   4.2666   4.2671   4.4900   4.6373   4.7090   4.8475
     5.1873   5.2149   5.2171   5.4726   5.8532   5.9656   5.9703   5.9725
     6.1393   6.3864   6.3878   6.6657   6.9466   6.9478   7.0746   7.2214
     7.4691   7.5950   7.6471   7.6478   7.7198   7.8400   8.0803   8.0806
     8.0818   8.3588   8.3602   8.4579   8.7175   8.7418   8.7426   8.7455
     8.8551   8.9218   8.9236   9.0131   9.3747   9.3770   9.4525   9.4552

     occupation numbers 
     1.0000   1.0000   1.0000   1.0000   1.0000   1.0000   1.0000   1.0000
     1.0000   1.0000   1.0000   1.0000   1.0000   1.0000   1.0000   1.0000
     1.0000   1.0000   1.0000   1.0000   1.0000   1.0000   1.0000   1.0000
     1.0000   1.0000   1.0000   1.0000   1.0000   1.0000   1.0000   1.0000
     1.0000   1.0000   1.0000   1.0000   1.0000   1.0000   1.0000   1.0000
     1.0000   1.0000   1.0000   1.0000   1.0000   1.0000   1.0000   1.0000
     1.0000   1.0000   1.0000   1.0000   1.0000   1.0000   1.0000   1.0000
     1.0000   1.0000   1.0000   1.0000   1.0000   1.0000   1.0000   1.0000
     1.0000   1.0000   1.0000   1.0000   1.0000   1.0000   1.0000   1.0000
     1.0000   1.0000   1.0000   1.0000   1.0000   1.0000   1.0000   1.0000
     1.0000   1.0000   1.0000   1.0000   1.0000   1.0000   1.0000   1.0000
     1.0000   1.0000   1.0000   1.0000   1.0000   1.0000   1.0000   1.0000
     1.0000   1.0000   1.0000   1.0000   1.0000   1.0000   1.0000   1.0000
     1.0000   1.0000   1.0000   1.0000   1.0000   1.0000   1.0000   1.0000
     1.0000   1.0000   1.0000   1.0000   1.0000   1.0000   1.0000   1.0000
     1.0000   1.0000   1.0000   1.0000   1.0000   1.0000   1.0000   1.0000
     1.0000   1.0000   1.0000   1.0000   1.0000   1.0000   1.0000   1.0000
     1.0000   1.0000   1.0000   1.0000   1.0000   1.0000   1.0000   1.0000

          k = 0.2000 0.5774 0.2456 ( 78823 PWs)   bands (ev):

    -4.9920  -4.9919  -4.9243  -4.9241  -4.8375  -4.7931  -4.7078  -4.7077
    -4.6916  -4.6911  -4.6821  -4.6673  -4.6644  -4.6601  -4.6501  -4.6407
    -3.3369  -3.3140  -3.3136  -3.3117  -3.3108  -3.3101  -3.3099  -3.3054
    -3.3050  -3.2941  -3.2936  -3.2925  -3.2874  -3.2816  -3.2698  -3.2692
    -3.2588  -3.2580  -3.2471  -3.2429  -3.2421  -3.2406  -3.2336  -3.2324
    -3.2319  -3.2285  -3.2274  -3.2230  -3.2143  -3.2071  -3.1821  -3.1715
    -3.1649  -3.1646  -3.1622  -3.1621  -3.1608  -3.1520  -3.1515  -3.1494
    -3.1479  -3.1439  -3.1421  -3.1415  -3.1318  -3.1307  -3.1286  -3.1214
    -3.1078  -3.1071  -3.1012  -3.0997  -3.0990  -3.0952  -3.0901  -3.0874
    -3.0841  -3.0786  -3.0760  -3.0720  -3.0712  -3.0708  -3.0657  -3.0641
    -2.8854  -2.8848  -2.7886  -2.7879  -2.4931  -2.3920  -1.8972  -1.8971
    -1.6229  -1.6226  -1.5861  -1.5101  -1.4717  -1.3667  -1.2543  -1.2131
     4.2485   4.4324   4.4603   4.4940   4.5094   4.5135   4.5623   4.6850
     4.8450   4.8479   5.4632   5.5236   5.6977   5.7015   6.3155   6.3173
     6.5050   6.5061   6.5617   6.8678   6.8702   7.0329   7.1344   7.1486
     7.1494   7.2126   7.2938   7.3419   7.5233   8.0116   8.1069   8.1080
     8.1711   8.2067   8.2080   8.3134   8.5234   8.5516   9.0319   9.0327
     9.0906   9.1103   9.2291   9.2301   9.2398   9.2427   9.4133   9.4156

     occupation numbers 
     1.0000   1.0000   1.0000   1.0000   1.0000   1.0000   1.0000   1.0000
     1.0000   1.0000   1.0000   1.0000   1.0000   1.0000   1.0000   1.0000
     1.0000   1.0000   1.0000   1.0000   1.0000   1.0000   1.0000   1.0000
     1.0000   1.0000   1.0000   1.0000   1.0000   1.0000   1.0000   1.0000
     1.0000   1.0000   1.0000   1.0000   1.0000   1.0000   1.0000   1.0000
     1.0000   1.0000   1.0000   1.0000   1.0000   1.0000   1.0000   1.0000
     1.0000   1.0000   1.0000   1.0000   1.0000   1.0000   1.0000   1.0000
     1.0000   1.0000   1.0000   1.0000   1.0000   1.0000   1.0000   1.0000
     1.0000   1.0000   1.0000   1.0000   1.0000   1.0000   1.0000   1.0000
     1.0000   1.0000   1.0000   1.0000   1.0000   1.0000   1.0000   1.0000
     1.0000   1.0000   1.0000   1.0000   1.0000   1.0000   1.0000   1.0000
     1.0000   1.0000   1.0000   1.0000   1.0000   1.0000   1.0000   1.0000
     1.0000   1.0000   1.0000   1.0000   1.0000   1.0000   1.0000   1.0000
     1.0000   1.0000   1.0000   1.0000   1.0000   1.0000   1.0000   1.0000
     1.0000   1.0000   1.0000   1.0000   1.0000   1.0000   1.0000   1.0000
     1.0000   1.0000   1.0000   1.0000   1.0000   1.0000   1.0000   1.0000
     1.0000   1.0000   1.0000   1.0000   1.0000   1.0000   1.0000   1.0000
     1.0000   1.0000   1.0000   1.0000   1.0000   1.0000   1.0000   1.0000

          k =-0.2000 0.1155 0.0000 ( 78863 PWs)   bands (ev):

    -5.4479  -4.9887  -4.9878  -4.8267  -4.7755  -4.7755  -4.7541  -4.6867
    -4.6864  -4.6659  -4.6655  -4.6650  -4.6650  -4.6519  -4.6476  -4.6475
    -3.3630  -3.3499  -3.3359  -3.3355  -3.3292  -3.3282  -3.3263  -3.3239
    -3.3236  -3.3159  -3.3120  -3.3095  -3.3053  -3.3049  -3.3045  -3.3043
    -3.2982  -3.2959  -3.2918  -3.2878  -3.2877  -3.2181  -3.2172  -3.2171
    -3.2167  -3.2161  -3.2156  -3.2132  -3.1953  -3.1951  -3.1746  -3.1737
    -3.1720  -3.1499  -3.1477  -3.1434  -3.1403  -3.1399  -3.1341  -3.1300
    -3.1294  -3.1289  -3.1273  -3.1207  -3.1201  -3.1167  -3.1165  -3.1162
    -3.1161  -3.0905  -3.0892  -3.0793  -3.0747  -3.0738  -3.0665  -3.0654
    -3.0650  -3.0641  -3.0639  -3.0627  -3.0620  -3.0502  -3.0407  -3.0396
    -3.0339  -2.8956  -2.8931  -2.2745  -1.9345  -1.9335  -1.8444  -1.8427
    -1.6829  -1.6260  -1.6246  -1.6244  -1.6234  -1.2067  -1.2058  -1.1763
     3.4602   3.9198   3.9217   3.9229   3.9254   4.0346   4.0376   4.1266
     4.1737   4.1754   5.1173   5.1197   5.2910   5.9259   6.0924   6.0942
     6.3528   6.3552   7.1532   7.1543   7.6705   7.7241   7.7254   7.7265
[...]
     atom    6 type  1   force =     0.00006891   -0.00018282    0.00017655
     atom    7 type  1   force =     0.00014986    0.00004683    0.00018441
     atom    8 type  1   force =    -0.00016635    0.00013606    0.00016924
     atom    9 type  1   force =    -0.00048001    0.00016448   -0.00035582
     atom   10 type  1   force =    -0.00159463   -0.00080415   -0.00114833
     atom   11 type  1   force =    -0.00019882    0.00066349   -0.00075947
     atom   12 type  1   force =     0.00002500    0.00000054   -0.00006871
     atom   13 type  1   force =    -0.00004756    0.00004211    0.00035479
     atom   14 type  1   force =     0.00002352   -0.00000157    0.00028146
     atom   15 type  1   force =     0.00002639   -0.00004058    0.00031817
     atom   16 type  1   force =    -0.00002212    0.00000023    0.00013386
     atom   17 type  2   force =     0.00350232   -0.00002557    0.00606613
     atom   18 type  2   force =    -0.00062596    0.00000015    0.00016102
     atom   19 type  2   force =    -0.00012931    0.00028709    0.00016068
     atom   20 type  2   force =    -0.00012834   -0.00028705    0.00016154
     atom   21 type  2   force =     0.00001347   -0.00000002   -0.00023728
     atom   22 type  2   force =    -0.00002289    0.00000593   -0.00027377
     atom   23 type  2   force =    -0.00000101    0.00001269   -0.00027738
     atom   24 type  2   force =     0.00000935   -0.00001859   -0.00027020
     atom   25 type  2   force =    -0.00019928    0.00013278   -0.00051812
     atom   26 type  2   force =     0.00009838    0.00003938   -0.00024233
     atom   27 type  2   force =     0.00003042   -0.00017164   -0.00037953
     atom   28 type  2   force =     0.00000535   -0.00000002   -0.00005376
     atom   29 type  2   force =     0.00017219   -0.00008250   -0.00028698
     atom   30 type  2   force =    -0.00026952   -0.00017230   -0.00046305
     atom   31 type  2   force =     0.00002913    0.00025516   -0.00037532
     atom   32 type  2   force =     0.00000526   -0.00000004   -0.00005280
     The non-local contrib.  to forces
     atom    1 type  1   force =     0.00029245   -0.00000090   -0.00248459
     atom    2 type  1   force =    -0.00014175   -0.00023516    0.00085806
     atom    3 type  1   force =     0.00019545    0.00019544    0.00088218
     atom    4 type  1   force =    -0.00021072    0.00004041    0.00083349
     atom    5 type  1   force =     0.00014166   -0.00000059   -0.00004702
     atom    6 type  1   force =    -0.00014242    0.00034195    0.00006046
     atom    7 type  1   force =    -0.00027792   -0.00007759    0.00006633
     atom    8 type  1   force =     0.00031542   -0.00026380    0.00005464
     atom    9 type  1   force =    -0.00054286    0.00037048    0.00132534
     atom   10 type  1   force =    -0.00247939   -0.00148211    0.00029210
     atom   11 type  1   force =     0.00009273    0.00113210    0.00080082
     atom   12 type  1   force =    -0.00001360   -0.00000012    0.00062336
     atom   13 type  1   force =     0.00001918   -0.00003963   -0.00020709
     atom   14 type  1   force =    -0.00000210    0.00002740    0.00005782
     atom   15 type  1   force =    -0.00004931    0.00001217   -0.00007390
     atom   16 type  1   force =     0.00004794   -0.00000008    0.00032486
     atom   17 type  2   force =     0.00339134    0.00000596    0.01956672
     atom   18 type  2   force =    -0.00253632   -0.00004083    0.01374526
     atom   19 type  2   force =    -0.00053477    0.00115657    0.01376867
     atom   20 type  2   force =    -0.00060082   -0.00111658    0.01372426
     atom   21 type  2   force =     0.00007294   -0.00000016    0.01208372
     atom   22 type  2   force =    -0.00011920   -0.00004137    0.01196330
     atom   23 type  2   force =     0.00005216    0.00009922    0.01197965
     atom   24 type  2   force =    -0.00001890   -0.00005764    0.01194695
     atom   25 type  2   force =    -0.00128306    0.00080290    0.01128254
     atom   26 type  2   force =     0.00060204    0.00028682    0.01216194
     atom   27 type  2   force =     0.00010639   -0.00108726    0.01172427
     atom   28 type  2   force =     0.00002863   -0.00000019    0.01274528
     atom   29 type  2   force =     0.00068809   -0.00038198    0.01187117
     atom   30 type  2   force =    -0.00099153   -0.00058727    0.01102993
     atom   31 type  2   force =     0.00002618    0.00096989    0.01144913
     atom   32 type  2   force =     0.00003950   -0.00000010    0.01306112
     The ionic contribution  to forces
     atom    1 type  1   force =     0.02324564   -0.00000000    0.06716712
     atom    2 type  1   force =    -0.00965908   -0.00000000    0.15389575
     atom    3 type  1   force =    -0.00058178    0.00524075    0.15391648
     atom    4 type  1   force =    -0.00058178   -0.00524075    0.15391648
     atom    5 type  1   force =     0.00354140   -0.00000000    0.13059649
     atom    6 type  1   force =    -0.00276118   -0.00000000    0.14543292
     atom    7 type  1   force =    -0.00009172    0.00154121    0.14542555
     atom    8 type  1   force =    -0.00009172   -0.00154121    0.14542555
     atom    9 type  1   force =     0.00290588    0.01093235    0.20669920
     atom   10 type  1   force =    -0.06450508   -0.04963640    0.16515580
     atom   11 type  1   force =     0.02165346    0.03906042    0.18580435
     atom   12 type  1   force =    -0.00792627   -0.00002811    0.16807611
     atom   13 type  1   force =    -0.00086490    0.00074395    0.14128311
     atom   14 type  1   force =     0.00081878    0.00023041    0.14232751
     atom   15 type  1   force =     0.00042168   -0.00097317    0.14180626
     atom   16 type  1   force =    -0.00039170   -0.00000110    0.14348387
     atom   17 type  2   force =     0.04703777   -0.00033367   -0.06927099
     atom   18 type  2   force =    -0.00956618   -0.00000000   -0.14520258
     atom   19 type  2   force =    -0.00082618    0.00504598   -0.14520270
     atom   20 type  2   force =    -0.00082618   -0.00504598   -0.14520270
     atom   21 type  2   force =     0.00025616   -0.00000000   -0.15822045
     atom   22 type  2   force =    -0.00024581   -0.00000000   -0.15711361
     atom   23 type  2   force =    -0.00000248    0.00014049   -0.15711361
     atom   24 type  2   force =    -0.00000248   -0.00014049   -0.15711361
     atom   25 type  2   force =    -0.00420819    0.00315557   -0.16015293
     atom   26 type  2   force =     0.00335181    0.00121687   -0.15548293
     atom   27 type  2   force =     0.00125076   -0.00436696   -0.15781171
     atom   28 type  2   force =    -0.00088195   -0.00000276   -0.15452610
     atom   29 type  2   force =     0.00334051   -0.00121719   -0.15552599
     atom   30 type  2   force =    -0.00416693   -0.00310974   -0.16010606
     atom   31 type  2   force =     0.00122577    0.00433225   -0.15782208
     atom   32 type  2   force =    -0.00086804   -0.00000271   -0.15454449
     The local contribution  to forces
     atom    1 type  1   force =    -0.02396560    0.00000124   -0.06696004
     atom    2 type  1   force =     0.00992179    0.00037786   -0.15496463
     atom    3 type  1   force =     0.00026481   -0.00557758   -0.15505336
     atom    4 type  1   force =     0.00091839    0.00519825   -0.15492502
     atom    5 type  1   force =    -0.00377608   -0.00000246   -0.13013533
     atom    6 type  1   force =     0.00300171   -0.00056290   -0.14532592
     atom    7 type  1   force =     0.00054815   -0.00141518   -0.14531704
     atom    8 type  1   force =    -0.00042304    0.00197934   -0.14531803
     atom    9 type  1   force =    -0.00285925   -0.01119644   -0.20860983
     atom   10 type  1   force =     0.06562349    0.05050614   -0.16670397
     atom   11 type  1   force =    -0.02205069   -0.03966789   -0.18752825
     atom   12 type  1   force =     0.00798885    0.00003377   -0.16881575
     atom   13 type  1   force =     0.00078279   -0.00066059   -0.14076378
     atom   14 type  1   force =    -0.00078289   -0.00024655   -0.14217493
     atom   15 type  1   force =    -0.00035757    0.00090597   -0.14147003
     atom   16 type  1   force =     0.00033389    0.00000189   -0.14376892
     atom   17 type  2   force =    -0.04672698    0.00030109    0.05654559
     atom   18 type  2   force =     0.01138293    0.00003800    0.13204574
     atom   19 type  2   force =     0.00121063   -0.00587274    0.13202349
     atom   20 type  2   force =     0.00127368    0.00583641    0.13206626
     atom   21 type  2   force =    -0.00031648   -0.00000005    0.14624654
     atom   22 type  2   force =     0.00034109    0.00004616    0.14521849
     atom   23 type  2   force =    -0.00004920   -0.00022537    0.14519860
     atom   24 type  2   force =     0.00003054    0.00017918    0.14523819
     atom   25 type  2   force =     0.00524017   -0.00379593    0.14867617
     atom   26 type  2   force =    -0.00383171   -0.00145072    0.14343483
     atom   27 type  2   force =    -0.00132688    0.00523918    0.14604794
     atom   28 type  2   force =     0.00086400    0.00000308    0.14210662
     atom   29 type  2   force =    -0.00383008    0.00149887    0.14373245
     atom   30 type  2   force =     0.00485044    0.00350384    0.14894521
     atom   31 type  2   force =    -0.00122629   -0.00500885    0.14634561
     atom   32 type  2   force =     0.00083964    0.00000342    0.14184286
     The core correction contribution to forces
     atom    1 type  1   force =     0.00010472    0.00000007   -0.00022210
     atom    2 type  1   force =    -0.00001169   -0.00002231    0.00009682
     atom    3 type  1   force =     0.00001962    0.00001781    0.00010091
     atom    4 type  1   force =    -0.00001922    0.00000429    0.00009275
     atom    5 type  1   force =     0.00001130   -0.00000010    0.00000571
     atom    6 type  1   force =    -0.00001288    0.00003694    0.00003342
     atom    7 type  1   force =    -0.00003005   -0.00000989    0.00003212
     atom    8 type  1   force =     0.00003409   -0.00002703    0.00003479
     atom    9 type  1   force =     0.00001435    0.00003843    0.00025769
     atom   10 type  1   force =    -0.00023252   -0.00018057    0.00012918
     atom   11 type  1   force =     0.00008076    0.00014260    0.00019338
     atom   12 type  1   force =     0.00000114    0.00000007    0.00007715
     atom   13 type  1   force =     0.00000941   -0.00000890    0.00000060
     atom   14 type  1   force =    -0.00000447    0.00000087    0.00002035
     atom   15 type  1   force =    -0.00000590    0.00000803    0.00001054
     atom   16 type  1   force =     0.00000520    0.00000003    0.00004796
     atom   17 type  2   force =    -0.00020495    0.00000042   -0.00076940
     atom   18 type  2   force =     0.00009879    0.00000285   -0.00042198
     atom   19 type  2   force =     0.00002058   -0.00004519   -0.00042349
     atom   20 type  2   force =     0.00002534    0.00004238   -0.00042057
     atom   21 type  2   force =    -0.00000273    0.00000001   -0.00036156
     atom   22 type  2   force =     0.00000458    0.00000173   -0.00035629
     atom   23 type  2   force =    -0.00000214   -0.00000389   -0.00035702
     atom   24 type  2   force =     0.00000084    0.00000215   -0.00035557
     atom   25 type  2   force =     0.00005100   -0.00003179   -0.00032866
     atom   26 type  2   force =    -0.00002298   -0.00001098   -0.00036244
     atom   27 type  2   force =    -0.00000400    0.00004267   -0.00034562
     atom   28 type  2   force =    -0.00000115    0.00000001   -0.00038516
     atom   29 type  2   force =    -0.00002668    0.00001489   -0.00034977
     atom   30 type  2   force =     0.00003881    0.00002289   -0.00031746
     atom   31 type  2   force =    -0.00000086   -0.00003781   -0.00033357
     atom   32 type  2   force =    -0.00000150    0.00000001   -0.00039789
     The Hubbard contrib.    to forces
     atom    1 type  1   force =     0.00000000    0.00000000    0.00000000
     atom    2 type  1   force =     0.00000000    0.00000000    0.00000000
     atom    3 type  1   force =     0.00000000    0.00000000    0.00000000
     atom    4 type  1   force =     0.00000000    0.00000000    0.00000000
     atom    5 type  1   force =     0.00000000    0.00000000    0.00000000
     atom    6 type  1   force =     0.00000000    0.00000000    0.00000000
     atom    7 type  1   force =     0.00000000    0.00000000    0.00000000
     atom    8 type  1   force =     0.00000000    0.00000000    0.00000000
     atom    9 type  1   force =     0.00000000    0.00000000    0.00000000
     atom   10 type  1   force =     0.00000000    0.00000000    0.00000000
     atom   11 type  1   force =     0.00000000    0.00000000    0.00000000
     atom   12 type  1   force =     0.00000000    0.00000000    0.00000000
     atom   13 type  1   force =     0.00000000    0.00000000    0.00000000
     atom   14 type  1   force =     0.00000000    0.00000000    0.00000000
     atom   15 type  1   force =     0.00000000    0.00000000    0.00000000
     atom   16 type  1   force =     0.00000000    0.00000000    0.00000000
     atom   17 type  2   force =     0.00000000    0.00000000    0.00000000
     atom   18 type  2   force =     0.00000000    0.00000000    0.00000000
     atom   19 type  2   force =     0.00000000    0.00000000    0.00000000
     atom   20 type  2   force =     0.00000000    0.00000000    0.00000000
     atom   21 type  2   force =     0.00000000    0.00000000    0.00000000
     atom   22 type  2   force =     0.00000000    0.00000000    0.00000000
     atom   23 type  2   force =     0.00000000    0.00000000    0.00000000
     atom   24 type  2   force =     0.00000000    0.00000000    0.00000000
     atom   25 type  2   force =     0.00000000    0.00000000    0.00000000
     atom   26 type  2   force =     0.00000000    0.00000000    0.00000000
     atom   27 type  2   force =     0.00000000    0.00000000    0.00000000
     atom   28 type  2   force =     0.00000000    0.00000000    0.00000000
     atom   29 type  2   force =     0.00000000    0.00000000    0.00000000
     atom   30 type  2   force =     0.00000000    0.00000000    0.00000000
     atom   31 type  2   force =     0.00000000    0.00000000    0.00000000
     atom   32 type  2   force =     0.00000000    0.00000000    0.00000000
     The SCF correction term to forces
     atom    1 type  1   force =     0.00001792   -0.00000036    0.00000976
     atom    2 type  1   force =    -0.00001818   -0.00000191    0.00000866
     atom    3 type  1   force =     0.00000149    0.00001303    0.00001965
     atom    4 type  1   force =    -0.00000127   -0.00001002    0.00000477
     atom    5 type  1   force =     0.00001674    0.00000287   -0.00001772
     atom    6 type  1   force =    -0.00001632    0.00000117   -0.00002428
     atom    7 type  1   force =     0.00000139    0.00000826   -0.00002251
     atom    8 type  1   force =    -0.00000111   -0.00001124   -0.00002767
     atom    9 type  1   force =     0.00000187    0.00001965   -0.00002817
     atom   10 type  1   force =    -0.00000115   -0.00001121   -0.00002138
     atom   11 type  1   force =     0.00002491   -0.00000375   -0.00002973
     atom   12 type  1   force =    -0.00002513   -0.00000507   -0.00002953
     atom   13 type  1   force =     0.00000596    0.00000727    0.00004200
     atom   14 type  1   force =    -0.00000582   -0.00001371    0.00005078
     atom   15 type  1   force =     0.00001749    0.00000642    0.00004535
     atom   16 type  1   force =    -0.00001745   -0.00000052    0.00004614
     atom   17 type  2   force =     0.00000514    0.00000062   -0.00000575
     atom   18 type  2   force =    -0.00000520    0.00000012   -0.00000537
     atom   19 type  2   force =     0.00000042    0.00000247   -0.00000524
     atom   20 type  2   force =    -0.00000037   -0.00000329   -0.00000565
     atom   21 type  2   force =     0.00000356    0.00000017    0.00001452
     atom   22 type  2   force =    -0.00000356   -0.00000060    0.00001439
     atom   23 type  2   force =     0.00000063    0.00000223    0.00001505
     atom   24 type  2   force =    -0.00000066   -0.00000180    0.00001390
     atom   25 type  2   force =     0.00000079    0.00000201    0.00000481
     atom   26 type  2   force =    -0.00000078   -0.00000261    0.00000632
     atom   27 type  2   force =     0.00000413    0.00000073    0.00000564
     atom   28 type  2   force =    -0.00000420   -0.00000017    0.00000565
     atom   29 type  2   force =     0.00000034    0.00000289   -0.00001479
     atom   30 type  2   force =    -0.00000031   -0.00000203   -0.00001461
     atom   31 type  2   force =     0.00000433   -0.00000032   -0.00001437
     atom   32 type  2   force =    -0.00000434   -0.00000066   -0.00001435

     Total force =     0.008017     Total SCF correction =     0.000144

     Writing output data file ../tmp/GaN_exc1.save/
 
     init_run     :     82.80s CPU     83.59s WALL (       1 calls)
     electrons    :   4393.52s CPU   4414.45s WALL (       1 calls)
     forces       :     33.52s CPU     33.55s WALL (       1 calls)

     Called by init_run:
     wfcinit      :     79.10s CPU     79.77s WALL (       1 calls)
     wfcinit:atom :      0.90s CPU      0.92s WALL (      63 calls)
     wfcinit:wfcr :     72.47s CPU     72.71s WALL (      63 calls)
     potinit      :      1.11s CPU      1.14s WALL (       1 calls)
     hinit0       :      2.31s CPU      2.39s WALL (       1 calls)

     Called by electrons:
     c_bands      :   3881.35s CPU   3899.82s WALL (      26 calls)
     sum_band     :    508.15s CPU    509.82s WALL (      26 calls)
     v_of_rho     :      2.98s CPU      3.38s WALL (      27 calls)
     v_h          :      0.18s CPU      0.18s WALL (      27 calls)
     v_xc         :      2.90s CPU      3.31s WALL (      28 calls)
     mix_rho      :      1.01s CPU      1.38s WALL (      26 calls)

     Called by c_bands:
     init_us_2    :     57.61s CPU     57.69s WALL (    3402 calls)
     cegterg      :   3542.96s CPU   3561.01s WALL (    1638 calls)

     Called by sum_band:
     sum_band:wei :      0.00s CPU      0.00s WALL (      26 calls)
     sum_band:loo :    507.88s CPU    509.55s WALL (      26 calls)
     sum_band:buf :     11.54s CPU     11.89s WALL (    1638 calls)
     sum_band:ini :     27.79s CPU     27.82s WALL (    1638 calls)

     Called by *egterg:
     cdiaghg      :     67.53s CPU     67.75s WALL (    5487 calls)
     cegterg:over :    271.43s CPU    271.52s WALL (    3849 calls)
     cegterg:upda :    271.86s CPU    282.16s WALL (    3849 calls)
     cegterg:last :    262.51s CPU    262.55s WALL (    2830 calls)
     cdiaghg:chol :      4.28s CPU      4.31s WALL (    5487 calls)
     cdiaghg:inve :      1.57s CPU      1.58s WALL (    5487 calls)
     cdiaghg:para :     11.30s CPU     11.35s WALL (   10974 calls)
     h_psi        :   2597.28s CPU   2604.63s WALL (    5550 calls)
     g_psi        :     14.88s CPU     14.90s WALL (    3849 calls)

     Called by h_psi:
     h_psi:calbec :    330.93s CPU    331.01s WALL (    5550 calls)
     vloc_psi     :   1878.22s CPU   1884.42s WALL (    5550 calls)
     add_vuspsi   :    360.35s CPU    360.70s WALL (    5550 calls)

     General routines
     calbec       :    350.40s CPU    350.49s WALL (    5802 calls)
     fft          :      1.34s CPU      1.41s WALL (     280 calls)
     ffts         :      0.10s CPU      0.10s WALL (      26 calls)
     fftw         :   1818.63s CPU   1824.46s WALL ( 1381548 calls)
 
     Parallel routines
 
     PWSCF        :      1h15m CPU      1h16m WALL

 
   This run was terminated on:   1:15: 5  29Mar2023            

=------------------------------------------------------------------------------=
   JOB DONE.
=------------------------------------------------------------------------------=
