
     Program PWSCF v.6.8 starts on 28Mar2023 at 22:44:55 

     This program is part of the open-source Quantum ESPRESSO suite
     for quantum simulation of materials; please cite
         "P. Giannozzi et al., J. Phys.:Condens. Matter 21 395502 (2009);
         "P. Giannozzi et al., J. Phys.:Condens. Matter 29 465901 (2017);
         "P. Giannozzi et al., J. Chem. Phys. 152 154105 (2020);
          URL http://www.quantum-espresso.org", 
     in publications or presentations arising from this work. More details at
     http://www.quantum-espresso.org/quote

     Parallel version (MPI & OpenMP), running on       6 processor cores
     Number of MPI processes:                 6
     Threads/MPI process:                     1

     MPI processes distributed on     1 nodes
     R & G space division:  proc/nbgrp/npool/nimage =       6
     162597 MiB available memory on the printing compute node when the environment starts
 
     Waiting for input...
     Reading input from standard input

     Current dimensions of program PWSCF are:
     Max number of different atomic species (ntypx) = 10
     Max number of k-points (npk) =  40000
     Max angular momentum in pseudopotentials (lmaxx) =  4

     Subspace diagonalization in iterative solution of the eigenvalue problem:
     one sub-group per band group will be used
     scalapack distributed-memory algorithm (size of sub-group:  2*  2 procs)

 
     Parallelization info
     --------------------
     sticks:   dense  smooth     PW     G-vecs:    dense   smooth      PW
     Min        1023    1023    271               105132   105132   14277
     Max        1025    1025    272               105135   105135   14280
     Sum        6145    6145   1627               630803   630803   85669
 
     Using Slab Decomposition
 


     bravais-lattice index     =            0
     lattice parameter (alat)  =      12.1668  a.u.
     unit-cell volume          =    2540.8240 (a.u.)^3
     number of atoms/cell      =           32
     number of atomic types    =            2
     number of electrons       =       288.00
     number of Kohn-Sham states=          144
     kinetic-energy cutoff     =     150.0000  Ry
     charge density cutoff     =     600.0000  Ry
     scf convergence threshold =      1.0E-08
     mixing beta               =       0.7000
     number of iterations used =            8  plain     mixing
     Exchange-correlation= PBE
                           (   1   4   3   4   0   0   0)

     celldm(1)=  12.166840  celldm(2)=   0.000000  celldm(3)=   0.000000
     celldm(4)=   0.000000  celldm(5)=   0.000000  celldm(6)=   0.000000

     crystal axes: (cart. coord. in units of alat)
               a(1) = (   1.000000   0.000000   0.000000 )  
               a(2) = (  -0.500000   0.866025   0.000000 )  
               a(3) = (   0.000000   0.000000   1.628961 )  

     reciprocal axes: (cart. coord. in units 2 pi/alat)
               b(1) = (  1.000000  0.577350  0.000000 )  
               b(2) = (  0.000000  1.154701  0.000000 )  
               b(3) = (  0.000000  0.000000  0.613888 )  


     PseudoPot. # 1 for Ga read from file:
     ../pseudo/Ga_ONCV_PBE_sr.upf
     MD5 check sum: e3654b1fbeb096be7359f640ef9d98d7
     Pseudo is Norm-conserving + core correction, Zval = 13.0
     Generated using ONCVPSP code by D. R. Hamann
     Using radial grid of 1902 points,  6 beta functions with: 
                l(1) =   0
                l(2) =   0
                l(3) =   1
                l(4) =   1
                l(5) =   2
                l(6) =   2

     PseudoPot. # 2 for N  read from file:
     ../pseudo/N_ONCV_PBE_sr.upf
     MD5 check sum: 18c6af81dac9c5a2d6d52ed11cf7bfee
     Pseudo is Norm-conserving + core correction, Zval =  5.0
     Generated using ONCVPSP code by D. R. Hamann
     Using radial grid of 1058 points,  4 beta functions with: 
                l(1) =   0
                l(2) =   0
                l(3) =   1
                l(4) =   1

     atomic species   valence    mass     pseudopotential
        Ga            13.00    69.72300     Ga( 1.00)
        N              5.00    14.00670     N ( 1.00)

     No symmetry found


                                    s                        frac. trans.

      isym =  1     identity                                     

 cryst.   s( 1) = (     1          0          0      )
                  (     0          1          0      )
                  (     0          0          1      )

 cart.    s( 1) = (  1.0000000  0.0000000  0.0000000 )
                  (  0.0000000  1.0000000  0.0000000 )
                  (  0.0000000  0.0000000  1.0000000 )


   Cartesian axes

     site n.     atom                  positions (alat units)
         1           Ga  tau(   1) = (   0.2500000   0.1443376   0.4065243  )
         2           Ga  tau(   2) = (   0.7500000   0.1443376   0.4065243  )
         3           Ga  tau(   3) = (   0.0000000   0.5773503   0.4065243  )
         4           Ga  tau(   4) = (   0.5000000   0.5773503   0.4065243  )
         5           Ga  tau(   5) = (   0.2500000   0.1443376   1.2210046  )
         6           Ga  tau(   6) = (   0.7500000   0.1443376   1.2210046  )
         7           Ga  tau(   7) = (   0.0000000   0.5773503   1.2210046  )
         8           Ga  tau(   8) = (   0.5000000   0.5773503   1.2210046  )
         9           Ga  tau(   9) = (  -0.0000000   0.2886751   0.8137645  )
        10           Ga  tau(  10) = (   0.5000000   0.2886751   0.8137645  )
        11           Ga  tau(  11) = (  -0.2500000   0.7216878   0.8137645  )
        12           Ga  tau(  12) = (   0.2500000   0.7216878   0.8137645  )
        13           Ga  tau(  13) = (  -0.0000000   0.2886751   1.6282448  )
        14           Ga  tau(  14) = (   0.5000000   0.2886751   1.6282448  )
        15           Ga  tau(  15) = (  -0.2500000   0.7216878   1.6282448  )
        16           Ga  tau(  16) = (   0.2500000   0.7216878   1.6282448  )
        17           N   tau(  17) = (   0.2508600   0.1443376   0.7147871  )
        18           N   tau(  18) = (   0.7500000   0.1443376   0.7133862  )
        19           N   tau(  19) = (   0.0000000   0.5773503   0.7133862  )
        20           N   tau(  20) = (   0.5000000   0.5773503   0.7133862  )
        21           N   tau(  21) = (   0.2500000   0.1443376   1.5278665  )
        22           N   tau(  22) = (   0.7500000   0.1443376   1.5278665  )
        23           N   tau(  23) = (   0.0000000   0.5773503   1.5278665  )
        24           N   tau(  24) = (   0.5000000   0.5773503   1.5278665  )
        25           N   tau(  25) = (  -0.0000000   0.2886751   0.3061460  )
        26           N   tau(  26) = (   0.5000000   0.2886751   0.3061460  )
        27           N   tau(  27) = (  -0.2500000   0.7216878   0.3061460  )
        28           N   tau(  28) = (   0.2500000   0.7216878   0.3061460  )
        29           N   tau(  29) = (  -0.0000000   0.2886751   1.1206263  )
        30           N   tau(  30) = (   0.5000000   0.2886751   1.1206263  )
        31           N   tau(  31) = (  -0.2500000   0.7216878   1.1206263  )
        32           N   tau(  32) = (   0.2500000   0.7216878   1.1206263  )

   Crystallographic axes

     site n.     atom                  positions (cryst. coord.)
         1           Ga  tau(   1) = (  0.3333333  0.1666667  0.2495605  )
         2           Ga  tau(   2) = (  0.8333333  0.1666667  0.2495605  )
         3           Ga  tau(   3) = (  0.3333333  0.6666667  0.2495605  )
         4           Ga  tau(   4) = (  0.8333333  0.6666667  0.2495605  )
         5           Ga  tau(   5) = (  0.3333333  0.1666667  0.7495605  )
         6           Ga  tau(   6) = (  0.8333333  0.1666667  0.7495605  )
         7           Ga  tau(   7) = (  0.3333333  0.6666667  0.7495605  )
         8           Ga  tau(   8) = (  0.8333333  0.6666667  0.7495605  )
         9           Ga  tau(   9) = (  0.1666667  0.3333333  0.4995605  )
        10           Ga  tau(  10) = (  0.6666667  0.3333333  0.4995605  )
        11           Ga  tau(  11) = (  0.1666667  0.8333333  0.4995605  )
        12           Ga  tau(  12) = (  0.6666667  0.8333333  0.4995605  )
        13           Ga  tau(  13) = (  0.1666667  0.3333333  0.9995605  )
        14           Ga  tau(  14) = (  0.6666667  0.3333333  0.9995605  )
        15           Ga  tau(  15) = (  0.1666667  0.8333333  0.9995605  )
        16           Ga  tau(  16) = (  0.6666667  0.8333333  0.9995605  )
        17           N   tau(  17) = (  0.3341933  0.1666667  0.4387995  )
        18           N   tau(  18) = (  0.8333333  0.1666667  0.4379395  )
        19           N   tau(  19) = (  0.3333333  0.6666667  0.4379395  )
        20           N   tau(  20) = (  0.8333333  0.6666667  0.4379395  )
        21           N   tau(  21) = (  0.3333333  0.1666667  0.9379395  )
        22           N   tau(  22) = (  0.8333333  0.1666667  0.9379395  )
        23           N   tau(  23) = (  0.3333333  0.6666667  0.9379395  )
        24           N   tau(  24) = (  0.8333333  0.6666667  0.9379395  )
        25           N   tau(  25) = (  0.1666667  0.3333333  0.1879395  )
        26           N   tau(  26) = (  0.6666667  0.3333333  0.1879395  )
        27           N   tau(  27) = (  0.1666667  0.8333333  0.1879395  )
        28           N   tau(  28) = (  0.6666667  0.8333333  0.1879395  )
        29           N   tau(  29) = (  0.1666667  0.3333333  0.6879395  )
        30           N   tau(  30) = (  0.6666667  0.3333333  0.6879395  )
        31           N   tau(  31) = (  0.1666667  0.8333333  0.6879395  )
        32           N   tau(  32) = (  0.6666667  0.8333333  0.6879395  )

     number of k points=    63
                       cart. coord. in units 2pi/alat
        k(    1) = (   0.0000000   0.0000000   0.0000000), wk =   0.0160000
        k(    2) = (   0.0000000   0.0000000   0.1227777), wk =   0.0320000
        k(    3) = (   0.0000000   0.0000000   0.2455553), wk =   0.0320000
        k(    4) = (   0.0000000   0.2309401   0.0000000), wk =   0.0320000
        k(    5) = (   0.0000000   0.2309401   0.1227777), wk =   0.0320000
        k(    6) = (   0.0000000   0.2309401   0.2455553), wk =   0.0320000
        k(    7) = (   0.0000000   0.4618802   0.0000000), wk =   0.0320000
        k(    8) = (   0.0000000   0.4618802   0.1227777), wk =   0.0320000
        k(    9) = (   0.0000000   0.4618802   0.2455553), wk =   0.0320000
        k(   10) = (   0.2000000   0.3464102   0.0000000), wk =   0.0320000
        k(   11) = (   0.2000000   0.3464102   0.1227777), wk =   0.0320000
        k(   12) = (   0.2000000   0.3464102   0.2455553), wk =   0.0320000
        k(   13) = (   0.2000000   0.5773503   0.0000000), wk =   0.0320000
        k(   14) = (   0.2000000   0.5773503   0.1227777), wk =   0.0320000
        k(   15) = (   0.2000000   0.5773503   0.2455553), wk =   0.0320000
        k(   16) = (  -0.2000000   0.1154701   0.0000000), wk =   0.0320000
        k(   17) = (   0.2000000   0.1154701   0.0000000), wk =   0.0320000
        k(   18) = (   0.0000000  -0.2309401   0.1227777), wk =   0.0320000
        k(   19) = (  -0.2000000   0.1154701   0.1227777), wk =   0.0320000
        k(   20) = (   0.2000000   0.1154701   0.1227777), wk =   0.0320000
        k(   21) = (  -0.2000000  -0.1154701   0.1227777), wk =   0.0320000
        k(   22) = (   0.2000000  -0.1154701   0.1227777), wk =   0.0320000
        k(   23) = (   0.0000000  -0.2309401   0.2455553), wk =   0.0320000
        k(   24) = (  -0.2000000   0.1154701   0.2455553), wk =   0.0320000
        k(   25) = (   0.2000000   0.1154701   0.2455553), wk =   0.0320000
        k(   26) = (  -0.2000000  -0.1154701   0.2455553), wk =   0.0320000
        k(   27) = (   0.2000000  -0.1154701   0.2455553), wk =   0.0320000
        k(   28) = (  -0.4000000   0.2309401   0.0000000), wk =   0.0320000
        k(   29) = (   0.4000000   0.2309401   0.0000000), wk =   0.0320000
        k(   30) = (   0.0000000  -0.4618802   0.1227777), wk =   0.0320000
        k(   31) = (  -0.4000000   0.2309401   0.1227777), wk =   0.0320000
        k(   32) = (   0.4000000   0.2309401   0.1227777), wk =   0.0320000
        k(   33) = (  -0.4000000  -0.2309401   0.1227777), wk =   0.0320000
        k(   34) = (   0.4000000  -0.2309401   0.1227777), wk =   0.0320000
        k(   35) = (   0.0000000  -0.4618802   0.2455553), wk =   0.0320000
        k(   36) = (  -0.4000000   0.2309401   0.2455553), wk =   0.0320000
        k(   37) = (   0.4000000   0.2309401   0.2455553), wk =   0.0320000
        k(   38) = (  -0.4000000  -0.2309401   0.2455553), wk =   0.0320000
        k(   39) = (   0.4000000  -0.2309401   0.2455553), wk =   0.0320000
        k(   40) = (  -0.2000000   0.3464102   0.0000000), wk =   0.0320000
        k(   41) = (   0.4000000   0.0000000   0.0000000), wk =   0.0320000
        k(   42) = (  -0.2000000  -0.3464102   0.1227777), wk =   0.0320000
        k(   43) = (  -0.2000000   0.3464102  -0.1227777), wk =   0.0320000
        k(   44) = (   0.2000000  -0.3464102  -0.1227777), wk =   0.0320000
        k(   45) = (   0.4000000   0.0000000   0.1227777), wk =   0.0320000
        k(   46) = (  -0.4000000   0.0000000   0.1227777), wk =   0.0320000
        k(   47) = (  -0.2000000  -0.3464102   0.2455553), wk =   0.0320000
        k(   48) = (  -0.2000000   0.3464102  -0.2455553), wk =   0.0320000
        k(   49) = (   0.2000000  -0.3464102  -0.2455553), wk =   0.0320000
        k(   50) = (   0.4000000   0.0000000   0.2455553), wk =   0.0320000
        k(   51) = (  -0.4000000   0.0000000   0.2455553), wk =   0.0320000
        k(   52) = (  -0.4000000   0.4618802   0.0000000), wk =   0.0320000
        k(   53) = (   0.6000000   0.1154701   0.0000000), wk =   0.0320000
        k(   54) = (  -0.2000000  -0.5773503   0.1227777), wk =   0.0320000
        k(   55) = (  -0.4000000   0.4618802   0.1227777), wk =   0.0320000
        k(   56) = (   0.6000000   0.1154701   0.1227777), wk =   0.0320000
        k(   57) = (  -0.6000000  -0.1154701   0.1227777), wk =   0.0320000
        k(   58) = (   0.4000000  -0.4618802   0.1227777), wk =   0.0320000
        k(   59) = (  -0.2000000  -0.5773503   0.2455553), wk =   0.0320000
        k(   60) = (  -0.4000000   0.4618802   0.2455553), wk =   0.0320000
        k(   61) = (   0.6000000   0.1154701   0.2455553), wk =   0.0320000
        k(   62) = (  -0.6000000  -0.1154701   0.2455553), wk =   0.0320000
        k(   63) = (   0.4000000  -0.4618802   0.2455553), wk =   0.0320000

                       cryst. coord.
        k(    1) = (   0.0000000   0.0000000   0.0000000), wk =   0.0160000
        k(    2) = (   0.0000000   0.0000000   0.2000000), wk =   0.0320000
        k(    3) = (   0.0000000   0.0000000   0.4000000), wk =   0.0320000
        k(    4) = (   0.0000000   0.2000000   0.0000000), wk =   0.0320000
        k(    5) = (   0.0000000   0.2000000   0.2000000), wk =   0.0320000
        k(    6) = (   0.0000000   0.2000000   0.4000000), wk =   0.0320000
        k(    7) = (   0.0000000   0.4000000   0.0000000), wk =   0.0320000
        k(    8) = (   0.0000000   0.4000000   0.2000000), wk =   0.0320000
        k(    9) = (   0.0000000   0.4000000   0.4000000), wk =   0.0320000
        k(   10) = (   0.2000000   0.2000000   0.0000000), wk =   0.0320000
        k(   11) = (   0.2000000   0.2000000   0.2000000), wk =   0.0320000
        k(   12) = (   0.2000000   0.2000000   0.4000000), wk =   0.0320000
        k(   13) = (   0.2000000   0.4000000   0.0000000), wk =   0.0320000
        k(   14) = (   0.2000000   0.4000000   0.2000000), wk =   0.0320000
        k(   15) = (   0.2000000   0.4000000   0.4000000), wk =   0.0320000
        k(   16) = (  -0.2000000   0.2000000   0.0000000), wk =   0.0320000
        k(   17) = (   0.2000000   0.0000000   0.0000000), wk =   0.0320000
        k(   18) = (   0.0000000  -0.2000000   0.2000000), wk =   0.0320000
        k(   19) = (  -0.2000000   0.2000000   0.2000000), wk =   0.0320000
        k(   20) = (   0.2000000   0.0000000   0.2000000), wk =   0.0320000
        k(   21) = (  -0.2000000   0.0000000   0.2000000), wk =   0.0320000
        k(   22) = (   0.2000000  -0.2000000   0.2000000), wk =   0.0320000
        k(   23) = (   0.0000000  -0.2000000   0.4000000), wk =   0.0320000
        k(   24) = (  -0.2000000   0.2000000   0.4000000), wk =   0.0320000
        k(   25) = (   0.2000000   0.0000000   0.4000000), wk =   0.0320000
        k(   26) = (  -0.2000000   0.0000000   0.4000000), wk =   0.0320000
        k(   27) = (   0.2000000  -0.2000000   0.4000000), wk =   0.0320000
        k(   28) = (  -0.4000000   0.4000000   0.0000000), wk =   0.0320000
        k(   29) = (   0.4000000   0.0000000   0.0000000), wk =   0.0320000
        k(   30) = (   0.0000000  -0.4000000   0.2000000), wk =   0.0320000
        k(   31) = (  -0.4000000   0.4000000   0.2000000), wk =   0.0320000
        k(   32) = (   0.4000000   0.0000000   0.2000000), wk =   0.0320000
        k(   33) = (  -0.4000000   0.0000000   0.2000000), wk =   0.0320000
        k(   34) = (   0.4000000  -0.4000000   0.2000000), wk =   0.0320000
        k(   35) = (   0.0000000  -0.4000000   0.4000000), wk =   0.0320000
        k(   36) = (  -0.4000000   0.4000000   0.4000000), wk =   0.0320000
        k(   37) = (   0.4000000   0.0000000   0.4000000), wk =   0.0320000
        k(   38) = (  -0.4000000   0.0000000   0.4000000), wk =   0.0320000
        k(   39) = (   0.4000000  -0.4000000   0.4000000), wk =   0.0320000
        k(   40) = (  -0.2000000   0.4000000   0.0000000), wk =   0.0320000
        k(   41) = (   0.4000000  -0.2000000   0.0000000), wk =   0.0320000
        k(   42) = (  -0.2000000  -0.2000000   0.2000000), wk =   0.0320000
        k(   43) = (  -0.2000000   0.4000000  -0.2000000), wk =   0.0320000
        k(   44) = (   0.2000000  -0.4000000  -0.2000000), wk =   0.0320000
        k(   45) = (   0.4000000  -0.2000000   0.2000000), wk =   0.0320000
        k(   46) = (  -0.4000000   0.2000000   0.2000000), wk =   0.0320000
        k(   47) = (  -0.2000000  -0.2000000   0.4000000), wk =   0.0320000
        k(   48) = (  -0.2000000   0.4000000  -0.4000000), wk =   0.0320000
        k(   49) = (   0.2000000  -0.4000000  -0.4000000), wk =   0.0320000
        k(   50) = (   0.4000000  -0.2000000   0.4000000), wk =   0.0320000
        k(   51) = (  -0.4000000   0.2000000   0.4000000), wk =   0.0320000
        k(   52) = (  -0.4000000   0.6000000   0.0000000), wk =   0.0320000
        k(   53) = (   0.6000000  -0.2000000   0.0000000), wk =   0.0320000
        k(   54) = (  -0.2000000  -0.4000000   0.2000000), wk =   0.0320000
        k(   55) = (  -0.4000000   0.6000000   0.2000000), wk =   0.0320000
        k(   56) = (   0.6000000  -0.2000000   0.2000000), wk =   0.0320000
        k(   57) = (  -0.6000000   0.2000000   0.2000000), wk =   0.0320000
        k(   58) = (   0.4000000  -0.6000000   0.2000000), wk =   0.0320000
        k(   59) = (  -0.2000000  -0.4000000   0.4000000), wk =   0.0320000
        k(   60) = (  -0.4000000   0.6000000   0.4000000), wk =   0.0320000
        k(   61) = (   0.6000000  -0.2000000   0.4000000), wk =   0.0320000
        k(   62) = (  -0.6000000   0.2000000   0.4000000), wk =   0.0320000
        k(   63) = (   0.4000000  -0.6000000   0.4000000), wk =   0.0320000

     Dense  grid:   630803 G-vectors     FFT dimensions: (  96,  96, 160)

     Dynamical RAM for                 wfc:      28.87 MB

     Dynamical RAM for     wfc (w. buffer):    1847.39 MB

     Dynamical RAM for           str. fact:       3.21 MB

     Dynamical RAM for           local pot:       0.00 MB

     Dynamical RAM for          nlocal pot:      83.39 MB

     Dynamical RAM for                qrad:       3.93 MB

     Dynamical RAM for          rho,v,vnew:      10.51 MB

     Dynamical RAM for               rhoin:       3.50 MB

     Dynamical RAM for            rho*nmix:      25.67 MB

     Dynamical RAM for           G-vectors:       6.82 MB

     Dynamical RAM for          h,s,v(r/c):       0.95 MB

     Dynamical RAM for          <psi|beta>:       0.91 MB

     Dynamical RAM for                 psi:      57.73 MB

     Dynamical RAM for                hpsi:      57.73 MB

     Dynamical RAM for      wfcinit/wfcrot:      84.38 MB

     Estimated static dynamical RAM per process >       1.93 GB

     Estimated max dynamical RAM per process >       2.07 GB

     Estimated total dynamical RAM >      12.40 GB

     Initial potential from superposition of free atoms

     starting charge  287.95708, renormalised to  288.00000
     Starting wfcs are  208 randomized atomic wfcs

     total cpu time spent up to now is       80.2 secs

     Self-consistent Calculation

     iteration #  1     ecut=   150.00 Ry     beta= 0.70
     Davidson diagonalization with overlap

---- Real-time Memory Report at c_bands before calling an iterative solver
          2209 MiB given to the printing process from OS
             0 MiB allocation reported by mallinfo(arena+hblkhd)
        149801 MiB available memory on the node where the printing process lives
------------------
     ethr =  1.00E-02,  avg # of iterations =  2.0

     total cpu time spent up to now is      263.0 secs

     total energy              =   -2776.29224770 Ry
     estimated scf accuracy    <       8.27613215 Ry

     iteration #  2     ecut=   150.00 Ry     beta= 0.70
     Davidson diagonalization with overlap

---- Real-time Memory Report at c_bands before calling an iterative solver
          2274 MiB given to the printing process from OS
             0 MiB allocation reported by mallinfo(arena+hblkhd)
        150066 MiB available memory on the node where the printing process lives
------------------
     ethr =  2.87E-03,  avg # of iterations =  3.0

     total cpu time spent up to now is      458.8 secs

     total energy              =   -2779.02732290 Ry
     estimated scf accuracy    <       7.32215066 Ry

     iteration #  3     ecut=   150.00 Ry     beta= 0.70
     Davidson diagonalization with overlap

---- Real-time Memory Report at c_bands before calling an iterative solver
          2294 MiB given to the printing process from OS
             0 MiB allocation reported by mallinfo(arena+hblkhd)
        149968 MiB available memory on the node where the printing process lives
------------------
     ethr =  2.54E-03,  avg # of iterations =  2.0

     negative rho (up, down):  4.604E-06 0.000E+00

     total cpu time spent up to now is      633.0 secs

     total energy              =   -2779.90174578 Ry
     estimated scf accuracy    <       0.24665489 Ry

     iteration #  4     ecut=   150.00 Ry     beta= 0.70
     Davidson diagonalization with overlap

---- Real-time Memory Report at c_bands before calling an iterative solver
          2300 MiB given to the printing process from OS
             0 MiB allocation reported by mallinfo(arena+hblkhd)
        149923 MiB available memory on the node where the printing process lives
------------------
     ethr =  8.56E-05,  avg # of iterations =  5.2

     negative rho (up, down):  9.206E-07 0.000E+00

     total cpu time spent up to now is      900.2 secs

     total energy              =   -2780.15847563 Ry
     estimated scf accuracy    <       0.79541241 Ry

     iteration #  5     ecut=   150.00 Ry     beta= 0.70
     Davidson diagonalization with overlap

---- Real-time Memory Report at c_bands before calling an iterative solver
          2334 MiB given to the printing process from OS
             0 MiB allocation reported by mallinfo(arena+hblkhd)
        149698 MiB available memory on the node where the printing process lives
------------------
     ethr =  8.56E-05,  avg # of iterations =  2.5

     negative rho (up, down):  4.831E-07 0.000E+00

     total cpu time spent up to now is     1077.0 secs

     total energy              =   -2780.18110853 Ry
     estimated scf accuracy    <       0.19938649 Ry

     iteration #  6     ecut=   150.00 Ry     beta= 0.70
     Davidson diagonalization with overlap

---- Real-time Memory Report at c_bands before calling an iterative solver
          2336 MiB given to the printing process from OS
             0 MiB allocation reported by mallinfo(arena+hblkhd)
        149654 MiB available memory on the node where the printing process lives
------------------
     ethr =  6.92E-05,  avg # of iterations =  1.4

     negative rho (up, down):  3.688E-07 0.000E+00

     total cpu time spent up to now is     1217.6 secs

     total energy              =   -2780.18232584 Ry
     estimated scf accuracy    <       0.11906535 Ry

     iteration #  7     ecut=   150.00 Ry     beta= 0.70
     Davidson diagonalization with overlap

---- Real-time Memory Report at c_bands before calling an iterative solver
          2338 MiB given to the printing process from OS
             0 MiB allocation reported by mallinfo(arena+hblkhd)
        149622 MiB available memory on the node where the printing process lives
------------------
     ethr =  4.13E-05,  avg # of iterations =  1.0

     negative rho (up, down):  3.699E-07 0.000E+00

     total cpu time spent up to now is     1354.5 secs

     total energy              =   -2780.18343927 Ry
     estimated scf accuracy    <       0.10748635 Ry

     iteration #  8     ecut=   150.00 Ry     beta= 0.70
     Davidson diagonalization with overlap

---- Real-time Memory Report at c_bands before calling an iterative solver
          2341 MiB given to the printing process from OS
             0 MiB allocation reported by mallinfo(arena+hblkhd)
        149586 MiB available memory on the node where the printing process lives
------------------
     ethr =  3.73E-05,  avg # of iterations =  1.0

     total cpu time spent up to now is     1491.0 secs

     total energy              =   -2780.18420661 Ry
     estimated scf accuracy    <       0.09332257 Ry

     iteration #  9     ecut=   150.00 Ry     beta= 0.70
     Davidson diagonalization with overlap

---- Real-time Memory Report at c_bands before calling an iterative solver
          2345 MiB given to the printing process from OS
             0 MiB allocation reported by mallinfo(arena+hblkhd)
        149560 MiB available memory on the node where the printing process lives
------------------
     ethr =  3.24E-05,  avg # of iterations =  1.0

     total cpu time spent up to now is     1627.9 secs

     total energy              =   -2780.17300514 Ry
     estimated scf accuracy    <       0.09068304 Ry

     iteration # 10     ecut=   150.00 Ry     beta= 0.70
     Davidson diagonalization with overlap

---- Real-time Memory Report at c_bands before calling an iterative solver
          2348 MiB given to the printing process from OS
             0 MiB allocation reported by mallinfo(arena+hblkhd)
        149528 MiB available memory on the node where the printing process lives
------------------
     ethr =  3.15E-05,  avg # of iterations =  1.0

     total cpu time spent up to now is     1764.6 secs

     total energy              =   -2780.16758815 Ry
     estimated scf accuracy    <       0.05255819 Ry

     iteration # 11     ecut=   150.00 Ry     beta= 0.70
     Davidson diagonalization with overlap

---- Real-time Memory Report at c_bands before calling an iterative solver
          2348 MiB given to the printing process from OS
             0 MiB allocation reported by mallinfo(arena+hblkhd)
        149528 MiB available memory on the node where the printing process lives
------------------
     ethr =  1.82E-05,  avg # of iterations =  1.1

     total cpu time spent up to now is     1902.8 secs

     total energy              =   -2780.16181010 Ry
     estimated scf accuracy    <       0.03423743 Ry

     iteration # 12     ecut=   150.00 Ry     beta= 0.70
     Davidson diagonalization with overlap

---- Real-time Memory Report at c_bands before calling an iterative solver
          2348 MiB given to the printing process from OS
             0 MiB allocation reported by mallinfo(arena+hblkhd)
        149519 MiB available memory on the node where the printing process lives
------------------
     ethr =  1.19E-05,  avg # of iterations =  2.1

     total cpu time spent up to now is     2062.3 secs

     total energy              =   -2780.16086011 Ry
     estimated scf accuracy    <       0.01417195 Ry

     iteration # 13     ecut=   150.00 Ry     beta= 0.70
     Davidson diagonalization with overlap

---- Real-time Memory Report at c_bands before calling an iterative solver
          2348 MiB given to the printing process from OS
             0 MiB allocation reported by mallinfo(arena+hblkhd)
        149503 MiB available memory on the node where the printing process lives
------------------
     ethr =  4.92E-06,  avg # of iterations =  4.0

     total cpu time spent up to now is     2247.3 secs

     total energy              =   -2780.16227495 Ry
     estimated scf accuracy    <       0.00272201 Ry

     iteration # 14     ecut=   150.00 Ry     beta= 0.70
     Davidson diagonalization with overlap

---- Real-time Memory Report at c_bands before calling an iterative solver
          2348 MiB given to the printing process from OS
             0 MiB allocation reported by mallinfo(arena+hblkhd)
        149463 MiB available memory on the node where the printing process lives
------------------
     ethr =  9.45E-07,  avg # of iterations =  3.1

     total cpu time spent up to now is     2409.8 secs

     total energy              =   -2780.16270319 Ry
     estimated scf accuracy    <       0.00142967 Ry

     iteration # 15     ecut=   150.00 Ry     beta= 0.70
     Davidson diagonalization with overlap

---- Real-time Memory Report at c_bands before calling an iterative solver
          2348 MiB given to the printing process from OS
             0 MiB allocation reported by mallinfo(arena+hblkhd)
        149425 MiB available memory on the node where the printing process lives
------------------
     ethr =  4.96E-07,  avg # of iterations =  1.1

     total cpu time spent up to now is     2547.4 secs

     total energy              =   -2780.16238347 Ry
     estimated scf accuracy    <       0.00204119 Ry

     iteration # 16     ecut=   150.00 Ry     beta= 0.70
     Davidson diagonalization with overlap

---- Real-time Memory Report at c_bands before calling an iterative solver
          2348 MiB given to the printing process from OS
             0 MiB allocation reported by mallinfo(arena+hblkhd)
        149402 MiB available memory on the node where the printing process lives
------------------
     ethr =  4.96E-07,  avg # of iterations =  1.1

     total cpu time spent up to now is     2685.0 secs

     total energy              =   -2780.16152712 Ry
     estimated scf accuracy    <       0.00129361 Ry

     iteration # 17     ecut=   150.00 Ry     beta= 0.70
     Davidson diagonalization with overlap

---- Real-time Memory Report at c_bands before calling an iterative solver
          2348 MiB given to the printing process from OS
             0 MiB allocation reported by mallinfo(arena+hblkhd)
        149358 MiB available memory on the node where the printing process lives
------------------
     ethr =  4.49E-07,  avg # of iterations =  4.0

     total cpu time spent up to now is     2887.5 secs

     total energy              =   -2780.16218573 Ry
     estimated scf accuracy    <       0.00047983 Ry

     iteration # 18     ecut=   150.00 Ry     beta= 0.70
     Davidson diagonalization with overlap

---- Real-time Memory Report at c_bands before calling an iterative solver
          2352 MiB given to the printing process from OS
             0 MiB allocation reported by mallinfo(arena+hblkhd)
        149269 MiB available memory on the node where the printing process lives
------------------
     ethr =  1.67E-07,  avg # of iterations =  1.1

     total cpu time spent up to now is     3024.1 secs

     total energy              =   -2780.16212648 Ry
     estimated scf accuracy    <       0.00040379 Ry

     iteration # 19     ecut=   150.00 Ry     beta= 0.70
     Davidson diagonalization with overlap

---- Real-time Memory Report at c_bands before calling an iterative solver
          2352 MiB given to the printing process from OS
             0 MiB allocation reported by mallinfo(arena+hblkhd)
        149254 MiB available memory on the node where the printing process lives
------------------
     ethr =  1.40E-07,  avg # of iterations =  1.0

     total cpu time spent up to now is     3160.5 secs

     total energy              =   -2780.16213557 Ry
     estimated scf accuracy    <       0.00022274 Ry

     iteration # 20     ecut=   150.00 Ry     beta= 0.70
     Davidson diagonalization with overlap

---- Real-time Memory Report at c_bands before calling an iterative solver
          2352 MiB given to the printing process from OS
             0 MiB allocation reported by mallinfo(arena+hblkhd)
        149235 MiB available memory on the node where the printing process lives
------------------
     ethr =  7.73E-08,  avg # of iterations =  1.0

     total cpu time spent up to now is     3296.5 secs

     total energy              =   -2780.16213193 Ry
     estimated scf accuracy    <       0.00022036 Ry

     iteration # 21     ecut=   150.00 Ry     beta= 0.70
     Davidson diagonalization with overlap

---- Real-time Memory Report at c_bands before calling an iterative solver
          2352 MiB given to the printing process from OS
             0 MiB allocation reported by mallinfo(arena+hblkhd)
        149215 MiB available memory on the node where the printing process lives
------------------
     ethr =  7.65E-08,  avg # of iterations =  1.0

     total cpu time spent up to now is     3432.9 secs

     total energy              =   -2780.16204970 Ry
     estimated scf accuracy    <       0.00020070 Ry

     iteration # 22     ecut=   150.00 Ry     beta= 0.70
     Davidson diagonalization with overlap

---- Real-time Memory Report at c_bands before calling an iterative solver
          2352 MiB given to the printing process from OS
             0 MiB allocation reported by mallinfo(arena+hblkhd)
        149193 MiB available memory on the node where the printing process lives
------------------
     ethr =  6.97E-08,  avg # of iterations =  2.0

     total cpu time spent up to now is     3603.1 secs

     total energy              =   -2780.16207487 Ry
     estimated scf accuracy    <       0.00001281 Ry

     iteration # 23     ecut=   150.00 Ry     beta= 0.70
     Davidson diagonalization with overlap

---- Real-time Memory Report at c_bands before calling an iterative solver
          2352 MiB given to the printing process from OS
             0 MiB allocation reported by mallinfo(arena+hblkhd)
        149155 MiB available memory on the node where the printing process lives
------------------
     ethr =  4.45E-09,  avg # of iterations =  4.2

     total cpu time spent up to now is     3808.5 secs

     total energy              =   -2780.16207847 Ry
     estimated scf accuracy    <       0.00000081 Ry

     iteration # 24     ecut=   150.00 Ry     beta= 0.70
     Davidson diagonalization with overlap

---- Real-time Memory Report at c_bands before calling an iterative solver
          2365 MiB given to the printing process from OS
             0 MiB allocation reported by mallinfo(arena+hblkhd)
        149030 MiB available memory on the node where the printing process lives
------------------
     ethr =  2.83E-10,  avg # of iterations =  4.4

     total cpu time spent up to now is     4005.1 secs

     total energy              =   -2780.16207859 Ry
     estimated scf accuracy    <       0.00000034 Ry

     iteration # 25     ecut=   150.00 Ry     beta= 0.70
     Davidson diagonalization with overlap

---- Real-time Memory Report at c_bands before calling an iterative solver
          2372 MiB given to the printing process from OS
             0 MiB allocation reported by mallinfo(arena+hblkhd)
        148475 MiB available memory on the node where the printing process lives
------------------
     ethr =  1.18E-10,  avg # of iterations =  2.0

     total cpu time spent up to now is     4169.6 secs

     total energy              =   -2780.16207851 Ry
     estimated scf accuracy    <       0.00000018 Ry

     iteration # 26     ecut=   150.00 Ry     beta= 0.70
     Davidson diagonalization with overlap

---- Real-time Memory Report at c_bands before calling an iterative solver
          2373 MiB given to the printing process from OS
             0 MiB allocation reported by mallinfo(arena+hblkhd)
        148291 MiB available memory on the node where the printing process lives
------------------
     ethr =  6.31E-11,  avg # of iterations =  4.0

     total cpu time spent up to now is     4384.9 secs

     End of self-consistent calculation

          k = 0.0000 0.0000 0.0000 ( 78839 PWs)   bands (ev):

    -5.5372  -5.0418  -5.0409  -4.7813  -4.7811  -4.7809  -4.7747  -4.6691
    -4.6683  -4.6682  -4.6677  -4.6675  -4.6672  -4.6467  -4.6463  -4.6459
    -3.3715  -3.3636  -3.3634  -3.3455  -3.3455  -3.3450  -3.3446  -3.3209
    -3.3208  -3.3197  -3.3173  -3.3170  -3.3166  -3.3147  -3.3144  -3.3137
    -3.3099  -3.3097  -3.2964  -3.2963  -3.2955  -3.2100  -3.2099  -3.2088
    -3.2085  -3.2085  -3.2079  -3.2070  -3.2069  -3.2067  -3.1758  -3.1754
    -3.1745  -3.1425  -3.1425  -3.1338  -3.1338  -3.1326  -3.1226  -3.1223
    -3.1221  -3.1084  -3.1080  -3.1078  -3.1073  -3.1070  -3.1068  -3.0899
    -3.0899  -3.0886  -3.0885  -3.0645  -3.0643  -3.0627  -3.0560  -3.0558
    -3.0552  -3.0547  -3.0542  -3.0537  -3.0520  -3.0518  -3.0309  -3.0304
    -3.0300  -2.9892  -2.9866  -1.8559  -1.8555  -1.8546  -1.7513  -1.6199
    -1.6193  -1.6185  -1.6184  -1.6178  -1.6166  -1.3019  -1.3010  -1.3000
     3.3268   3.7377   3.7402   3.7414   3.7416   3.7424   3.7432   3.8698
     3.8714   3.8730   4.9894   4.9913   4.9931   6.1151   6.1158   6.1189
     6.3857   6.3880   7.5387   7.5396   7.5399   8.0627   8.0636   8.0668
     8.3012   8.3030   8.3057   8.3058   8.3066   8.3066   8.3446   8.3447
     8.3449   8.3452   8.3464   8.3518   9.1738   9.1760   9.2067   9.2073
     9.2091   9.6555   9.6579   9.6586   9.6593  10.1336  10.1657  10.1664

     occupation numbers 
     1.0000   1.0000   1.0000   1.0000   1.0000   1.0000   1.0000   1.0000
     1.0000   1.0000   1.0000   1.0000   1.0000   1.0000   1.0000   1.0000
     1.0000   1.0000   1.0000   1.0000   1.0000   1.0000   1.0000   1.0000
     1.0000   1.0000   1.0000   1.0000   1.0000   1.0000   1.0000   1.0000
     1.0000   1.0000   1.0000   1.0000   1.0000   1.0000   1.0000   1.0000
     1.0000   1.0000   1.0000   1.0000   1.0000   1.0000   1.0000   1.0000
     1.0000   1.0000   1.0000   1.0000   1.0000   1.0000   1.0000   1.0000
     1.0000   1.0000   1.0000   1.0000   1.0000   1.0000   1.0000   1.0000
     1.0000   1.0000   1.0000   1.0000   1.0000   1.0000   1.0000   1.0000
     1.0000   1.0000   1.0000   1.0000   1.0000   1.0000   1.0000   1.0000
     1.0000   1.0000   1.0000   1.0000   1.0000   1.0000   1.0000   1.0000
     1.0000   1.0000   1.0000   1.0000   1.0000   1.0000   1.0000   1.0000
     1.0000   1.0000   1.0000   1.0000   1.0000   1.0000   1.0000   1.0000
     1.0000   1.0000   1.0000   1.0000   1.0000   1.0000   1.0000   1.0000
     1.0000   1.0000   1.0000   1.0000   1.0000   1.0000   1.0000   1.0000
     1.0000   1.0000   1.0000   1.0000   1.0000   1.0000   1.0000   1.0000
     1.0000   1.0000   1.0000   1.0000   1.0000   1.0000   1.0000   1.0000
     1.0000   1.0000   1.0000   1.0000   1.0000   1.0000   1.0000   1.0000

          k = 0.0000 0.0000 0.1228 ( 78809 PWs)   bands (ev):

    -5.5099  -5.1760  -4.9307  -4.7819  -4.7737  -4.7734  -4.7732  -4.6930
    -4.6928  -4.6927  -4.6528  -4.6527  -4.6522  -4.6455  -4.6448  -4.6444
    -3.3634  -3.3632  -3.3627  -3.3525  -3.3522  -3.3363  -3.3361  -3.3285
    -3.3285  -3.3280  -3.3194  -3.3193  -3.3192  -3.3119  -3.3118  -3.2963
    -3.2962  -3.2959  -3.2921  -3.2921  -3.2912  -3.2358  -3.2357  -3.2348
    -3.2009  -3.2006  -3.2005  -3.1952  -3.1949  -3.1942  -3.1834  -3.1834
    -3.1823  -3.1624  -3.1395  -3.1395  -3.1366  -3.1366  -3.1355  -3.1318
    -3.1317  -3.1315  -3.1093  -3.1091  -3.1088  -3.1037  -3.1036  -3.0916
    -3.0915  -3.0913  -3.0765  -3.0764  -3.0645  -3.0643  -3.0627  -3.0578
    -3.0575  -3.0571  -3.0536  -3.0535  -3.0512  -3.0506  -3.0503  -3.0330
    -3.0325  -3.0321  -2.7396  -1.8527  -1.8465  -1.8462  -1.8453  -1.7024
    -1.7023  -1.7018  -1.5264  -1.5262  -1.5259  -1.3180  -1.3172  -1.3163
     3.5030   3.6129   3.6146   3.6156   3.8047   3.8063   3.8078   3.9670
     3.9687   3.9701   4.8752   4.8771   4.8789   5.4993   6.2857   6.2863
     6.2894   7.2976   7.5738   7.5748   7.5751   7.8576   7.8583   7.8610
     8.0559   8.0568   8.0575   8.1790   8.1798   8.1830   8.5647   8.5655
     8.5667   8.6295   8.6299   8.6327   9.1578   9.1586   9.1604   9.1970
     9.1990   9.5050   9.5068   9.7800   9.8115   9.8128  10.1402  10.1410

     occupation numbers 
     1.0000   1.0000   1.0000   1.0000   1.0000   1.0000   1.0000   1.0000
     1.0000   1.0000   1.0000   1.0000   1.0000   1.0000   1.0000   1.0000
     1.0000   1.0000   1.0000   1.0000   1.0000   1.0000   1.0000   1.0000
     1.0000   1.0000   1.0000   1.0000   1.0000   1.0000   1.0000   1.0000
     1.0000   1.0000   1.0000   1.0000   1.0000   1.0000   1.0000   1.0000
     1.0000   1.0000   1.0000   1.0000   1.0000   1.0000   1.0000   1.0000
     1.0000   1.0000   1.0000   1.0000   1.0000   1.0000   1.0000   1.0000
     1.0000   1.0000   1.0000   1.0000   1.0000   1.0000   1.0000   1.0000
     1.0000   1.0000   1.0000   1.0000   1.0000   1.0000   1.0000   1.0000
     1.0000   1.0000   1.0000   1.0000   1.0000   1.0000   1.0000   1.0000
     1.0000   1.0000   1.0000   1.0000   1.0000   1.0000   1.0000   1.0000
     1.0000   1.0000   1.0000   1.0000   1.0000   1.0000   1.0000   1.0000
     1.0000   1.0000   1.0000   1.0000   1.0000   1.0000   1.0000   1.0000
     1.0000   1.0000   1.0000   1.0000   1.0000   1.0000   1.0000   1.0000
     1.0000   1.0000   1.0000   1.0000   1.0000   1.0000   1.0000   1.0000
     1.0000   1.0000   1.0000   1.0000   1.0000   1.0000   1.0000   1.0000
     1.0000   1.0000   1.0000   1.0000   1.0000   1.0000   1.0000   1.0000
     1.0000   1.0000   1.0000   1.0000   1.0000   1.0000   1.0000   1.0000

          k = 0.0000 0.0000 0.2456 ( 78828 PWs)   bands (ev):

    -5.4318  -5.3141  -4.8532  -4.8058  -4.7528  -4.7526  -4.7523  -4.7231
    -4.7230  -4.7229  -4.6472  -4.6471  -4.6463  -4.6429  -4.6419  -4.6414
    -3.3627  -3.3626  -3.3570  -3.3567  -3.3330  -3.3305  -3.3304  -3.3296
    -3.3270  -3.3269  -3.3245  -3.3244  -3.3241  -3.3174  -3.3173  -3.2800
    -3.2799  -3.2789  -3.2714  -3.2663  -3.2663  -3.2657  -3.2599  -3.2598
    -3.2590  -3.2305  -3.2304  -3.2298  -3.1833  -3.1831  -3.1829  -3.1619
    -3.1619  -3.1606  -3.1584  -3.1582  -3.1581  -3.1454  -3.1454  -3.1443
    -3.1312  -3.1312  -3.1178  -3.1178  -3.0931  -3.0930  -3.0928  -3.0864
    -3.0862  -3.0860  -3.0666  -3.0665  -3.0644  -3.0642  -3.0627  -3.0589
    -3.0587  -3.0582  -3.0574  -3.0572  -3.0460  -3.0455  -3.0449  -3.0380
    -3.0375  -3.0372  -2.4319  -2.1101  -1.8183  -1.8180  -1.8172  -1.7700
    -1.7697  -1.7691  -1.4377  -1.4373  -1.4368  -1.3648  -1.3642  -1.3634
     3.5972   3.5988   3.5999   3.6793   3.6808   3.6821   3.9852   4.2684
     4.2702   4.2718   4.5976   4.5994   4.6011   4.6786   6.7186   6.7193
     6.7223   7.2800   7.2806   7.2835   7.6771   7.6780   7.6784   7.8416
     7.8425   7.8431   8.1969   8.4352   8.4357   8.4389   8.6414   8.6417
     8.6448   8.8126   8.8134   8.8149   9.0197   9.0204   9.0220   9.0487
     9.2642   9.2662   9.3700   9.3719   9.9529   9.9540  10.0667  10.0676

     occupation numbers 
     1.0000   1.0000   1.0000   1.0000   1.0000   1.0000   1.0000   1.0000
     1.0000   1.0000   1.0000   1.0000   1.0000   1.0000   1.0000   1.0000
     1.0000   1.0000   1.0000   1.0000   1.0000   1.0000   1.0000   1.0000
     1.0000   1.0000   1.0000   1.0000   1.0000   1.0000   1.0000   1.0000
     1.0000   1.0000   1.0000   1.0000   1.0000   1.0000   1.0000   1.0000
     1.0000   1.0000   1.0000   1.0000   1.0000   1.0000   1.0000   1.0000
     1.0000   1.0000   1.0000   1.0000   1.0000   1.0000   1.0000   1.0000
     1.0000   1.0000   1.0000   1.0000   1.0000   1.0000   1.0000   1.0000
     1.0000   1.0000   1.0000   1.0000   1.0000   1.0000   1.0000   1.0000
     1.0000   1.0000   1.0000   1.0000   1.0000   1.0000   1.0000   1.0000
     1.0000   1.0000   1.0000   1.0000   1.0000   1.0000   1.0000   1.0000
     1.0000   1.0000   1.0000   1.0000   1.0000   1.0000   1.0000   1.0000
     1.0000   1.0000   1.0000   1.0000   1.0000   1.0000   1.0000   1.0000
     1.0000   1.0000   1.0000   1.0000   1.0000   1.0000   1.0000   1.0000
     1.0000   1.0000   1.0000   1.0000   1.0000   1.0000   1.0000   1.0000
     1.0000   1.0000   1.0000   1.0000   1.0000   1.0000   1.0000   1.0000
     1.0000   1.0000   1.0000   1.0000   1.0000   1.0000   1.0000   1.0000
     1.0000   1.0000   1.0000   1.0000   1.0000   1.0000   1.0000   1.0000

          k = 0.0000 0.2309 0.0000 ( 78863 PWs)   bands (ev):

    -5.4479  -4.9890  -4.9882  -4.8267  -4.7755  -4.7753  -4.7546  -4.6869
    -4.6863  -4.6660  -4.6655  -4.6650  -4.6647  -4.6520  -4.6478  -4.6473
    -3.3628  -3.3504  -3.3369  -3.3350  -3.3295  -3.3287  -3.3263  -3.3238
    -3.3235  -3.3161  -3.3114  -3.3098  -3.3052  -3.3049  -3.3043  -3.3041
    -3.2985  -3.2960  -3.2923  -3.2879  -3.2874  -3.2181  -3.2178  -3.2168
    -3.2165  -3.2164  -3.2157  -3.2127  -3.1949  -3.1948  -3.1744  -3.1739
    -3.1719  -3.1499  -3.1481  -3.1434  -3.1406  -3.1400  -3.1339  -3.1297
    -3.1294  -3.1285  -3.1273  -3.1204  -3.1200  -3.1165  -3.1163  -3.1162
    -3.1159  -3.0904  -3.0891  -3.0795  -3.0750  -3.0738  -3.0666  -3.0651
    -3.0645  -3.0639  -3.0638  -3.0630  -3.0627  -3.0502  -3.0404  -3.0400
    -3.0339  -2.8950  -2.8926  -2.2747  -1.9345  -1.9332  -1.8445  -1.8427
    -1.6830  -1.6257  -1.6249  -1.6243  -1.6230  -1.2070  -1.2061  -1.1762
     3.4639   3.9178   3.9215   3.9221   3.9230   4.0344   4.0356   4.1259
     4.1734   4.1760   5.1137   5.1172   5.2912   5.9267   6.0953   6.0973
     6.3554   6.3579   7.1520   7.1539   7.6693   7.7225   7.7253   7.7263
     7.7278   8.1510   8.1542   8.2602   8.2622   8.4169   8.4197   8.4716
     8.4900   8.5436   8.5445   8.5454   8.5484   8.8633   8.8655   8.9783
     9.1548   9.1561   9.2977   9.3192   9.5075   9.5093  10.0397  10.0800

     occupation numbers 
     1.0000   1.0000   1.0000   1.0000   1.0000   1.0000   1.0000   1.0000
     1.0000   1.0000   1.0000   1.0000   1.0000   1.0000   1.0000   1.0000
     1.0000   1.0000   1.0000   1.0000   1.0000   1.0000   1.0000   1.0000
     1.0000   1.0000   1.0000   1.0000   1.0000   1.0000   1.0000   1.0000
     1.0000   1.0000   1.0000   1.0000   1.0000   1.0000   1.0000   1.0000
     1.0000   1.0000   1.0000   1.0000   1.0000   1.0000   1.0000   1.0000
     1.0000   1.0000   1.0000   1.0000   1.0000   1.0000   1.0000   1.0000
     1.0000   1.0000   1.0000   1.0000   1.0000   1.0000   1.0000   1.0000
     1.0000   1.0000   1.0000   1.0000   1.0000   1.0000   1.0000   1.0000
     1.0000   1.0000   1.0000   1.0000   1.0000   1.0000   1.0000   1.0000
     1.0000   1.0000   1.0000   1.0000   1.0000   1.0000   1.0000   1.0000
     1.0000   1.0000   1.0000   1.0000   1.0000   1.0000   1.0000   1.0000
     1.0000   1.0000   1.0000   1.0000   1.0000   1.0000   1.0000   1.0000
     1.0000   1.0000   1.0000   1.0000   1.0000   1.0000   1.0000   1.0000
     1.0000   1.0000   1.0000   1.0000   1.0000   1.0000   1.0000   1.0000
     1.0000   1.0000   1.0000   1.0000   1.0000   1.0000   1.0000   1.0000
     1.0000   1.0000   1.0000   1.0000   1.0000   1.0000   1.0000   1.0000
     1.0000   1.0000   1.0000   1.0000   1.0000   1.0000   1.0000   1.0000

          k = 0.0000 0.2309 0.1228 ( 78862 PWs)   bands (ev):

    -5.4221  -5.1109  -4.8899  -4.8174  -4.7680  -4.7677  -4.7606  -4.7180
    -4.6891  -4.6889  -4.6657  -4.6519  -4.6517  -4.6508  -4.6460  -4.6453
    -3.3605  -3.3500  -3.3434  -3.3372  -3.3271  -3.3232  -3.3214  -3.3210
    -3.3204  -3.3194  -3.3157  -3.3139  -3.3136  -3.3000  -3.2944  -3.2921
    -3.2914  -3.2900  -3.2898  -3.2851  -3.2849  -3.2451  -3.2445  -3.2406
    -3.2139  -3.1968  -3.1966  -3.1934  -3.1909  -3.1901  -3.1842  -3.1837
    -3.1832  -3.1750  -3.1508  -3.1454  -3.1450  -3.1447  -3.1408  -3.1404
    -3.1343  -3.1340  -3.1213  -3.1161  -3.1160  -3.1063  -3.1047  -3.1039
    -3.1028  -3.1027  -3.0795  -3.0763  -3.0747  -3.0732  -3.0695  -3.0685
    -3.0668  -3.0665  -3.0603  -3.0600  -3.0578  -3.0518  -3.0434  -3.0429
    -3.0420  -3.0360  -2.6519  -2.2584  -1.9998  -1.9221  -1.9208  -1.7811
    -1.7335  -1.7326  -1.6645  -1.5052  -1.5045  -1.2289  -1.2282  -1.2148
     3.6324   3.7909   3.7928   3.9687   3.9703   3.9995   4.0607   4.1446
     4.1476   4.4327   5.0116   5.0149   5.2531   5.5305   6.0530   6.2464
     6.2483   7.1815   7.2038   7.2054   7.3949   7.3970   7.6902   7.7038
     8.0243   8.0249   8.1502   8.1510   8.1758   8.2573   8.2602   8.4994
     8.5734   8.6640   8.6729   8.7822   8.7828   8.8107   8.8125   8.9372
     9.0034   9.1427   9.2504   9.3405   9.3882   9.6803   9.9700  10.0509

     occupation numbers 
     1.0000   1.0000   1.0000   1.0000   1.0000   1.0000   1.0000   1.0000
     1.0000   1.0000   1.0000   1.0000   1.0000   1.0000   1.0000   1.0000
     1.0000   1.0000   1.0000   1.0000   1.0000   1.0000   1.0000   1.0000
     1.0000   1.0000   1.0000   1.0000   1.0000   1.0000   1.0000   1.0000
     1.0000   1.0000   1.0000   1.0000   1.0000   1.0000   1.0000   1.0000
     1.0000   1.0000   1.0000   1.0000   1.0000   1.0000   1.0000   1.0000
     1.0000   1.0000   1.0000   1.0000   1.0000   1.0000   1.0000   1.0000
     1.0000   1.0000   1.0000   1.0000   1.0000   1.0000   1.0000   1.0000
     1.0000   1.0000   1.0000   1.0000   1.0000   1.0000   1.0000   1.0000
     1.0000   1.0000   1.0000   1.0000   1.0000   1.0000   1.0000   1.0000
     1.0000   1.0000   1.0000   1.0000   1.0000   1.0000   1.0000   1.0000
     1.0000   1.0000   1.0000   1.0000   1.0000   1.0000   1.0000   1.0000
     1.0000   1.0000   1.0000   1.0000   1.0000   1.0000   1.0000   1.0000
     1.0000   1.0000   1.0000   1.0000   1.0000   1.0000   1.0000   1.0000
     1.0000   1.0000   1.0000   1.0000   1.0000   1.0000   1.0000   1.0000
     1.0000   1.0000   1.0000   1.0000   1.0000   1.0000   1.0000   1.0000
     1.0000   1.0000   1.0000   1.0000   1.0000   1.0000   1.0000   1.0000
     1.0000   1.0000   1.0000   1.0000   1.0000   1.0000   1.0000   1.0000

          k = 0.0000 0.2309 0.2456 ( 78820 PWs)   bands (ev):

    -5.3484  -5.2384  -4.8219  -4.7917  -4.7810  -4.7555  -4.7474  -4.7470
    -4.7183  -4.7182  -4.6560  -4.6503  -4.6473  -4.6467  -4.6426  -4.6418
    -3.3557  -3.3493  -3.3487  -3.3425  -3.3257  -3.3204  -3.3183  -3.3180
    -3.3173  -3.3142  -3.3139  -3.3101  -3.3098  -3.3000  -3.2925  -3.2874
    -3.2869  -3.2809  -3.2719  -3.2715  -3.2639  -3.2626  -3.2563  -3.2561
    -3.2437  -3.2339  -3.2253  -3.2250  -3.1808  -3.1742  -3.1733  -3.1731
    -3.1699  -3.1690  -3.1625  -3.1589  -3.1537  -3.1535  -3.1530  -3.1526
    -3.1322  -3.1317  -3.1188  -3.1074  -3.1069  -3.1022  -3.1018  -3.1011
    -3.0970  -3.0968  -3.0837  -3.0787  -3.0740  -3.0733  -3.0728  -3.0718
    -3.0680  -3.0676  -3.0656  -3.0573  -3.0569  -3.0562  -3.0505  -3.0497
    -3.0493  -3.0414  -2.3481  -2.2084  -2.1225  -2.0321  -1.8847  -1.8835
    -1.8215  -1.8204  -1.4825  -1.3889  -1.3884  -1.3234  -1.2922  -1.2917
     3.7695   3.7710   3.8455   3.8474   3.9264   3.9581   4.0933   4.4377
     4.4410   4.7417   4.7526   4.7545   4.7564   5.0485   6.4689   6.6155
     6.6168   7.0314   7.0339   7.0579   7.3722   7.3735   7.6885   7.6888
     7.8049   7.9566   7.9661   8.3310   8.3328   8.4485   8.4493   8.5354
     8.7023   8.7043   8.7097   8.7401   8.7538   8.7821   8.7830   8.8171
     8.9147   9.0766   9.1162   9.1923   9.6141   9.8138   9.8388   9.9674

     occupation numbers 
     1.0000   1.0000   1.0000   1.0000   1.0000   1.0000   1.0000   1.0000
     1.0000   1.0000   1.0000   1.0000   1.0000   1.0000   1.0000   1.0000
     1.0000   1.0000   1.0000   1.0000   1.0000   1.0000   1.0000   1.0000
     1.0000   1.0000   1.0000   1.0000   1.0000   1.0000   1.0000   1.0000
     1.0000   1.0000   1.0000   1.0000   1.0000   1.0000   1.0000   1.0000
     1.0000   1.0000   1.0000   1.0000   1.0000   1.0000   1.0000   1.0000
     1.0000   1.0000   1.0000   1.0000   1.0000   1.0000   1.0000   1.0000
     1.0000   1.0000   1.0000   1.0000   1.0000   1.0000   1.0000   1.0000
     1.0000   1.0000   1.0000   1.0000   1.0000   1.0000   1.0000   1.0000
     1.0000   1.0000   1.0000   1.0000   1.0000   1.0000   1.0000   1.0000
     1.0000   1.0000   1.0000   1.0000   1.0000   1.0000   1.0000   1.0000
     1.0000   1.0000   1.0000   1.0000   1.0000   1.0000   1.0000   1.0000
     1.0000   1.0000   1.0000   1.0000   1.0000   1.0000   1.0000   1.0000
     1.0000   1.0000   1.0000   1.0000   1.0000   1.0000   1.0000   1.0000
     1.0000   1.0000   1.0000   1.0000   1.0000   1.0000   1.0000   1.0000
     1.0000   1.0000   1.0000   1.0000   1.0000   1.0000   1.0000   1.0000
     1.0000   1.0000   1.0000   1.0000   1.0000   1.0000   1.0000   1.0000
     1.0000   1.0000   1.0000   1.0000   1.0000   1.0000   1.0000   1.0000

          k = 0.0000 0.4619 0.0000 ( 78795 PWs)   bands (ev):

    -5.2225  -4.9787  -4.8668  -4.8662  -4.7655  -4.7654  -4.7514  -4.7510
    -4.7105  -4.6721  -4.6620  -4.6613  -4.6604  -4.6602  -4.6504  -4.6498
    -3.3422  -3.3419  -3.3354  -3.3218  -3.3162  -3.3114  -3.3106  -3.3019
    -3.3016  -3.3011  -3.2890  -3.2881  -3.2783  -3.2778  -3.2774  -3.2772
    -3.2711  -3.2483  -3.2480  -3.2464  -3.2443  -3.2436  -3.2309  -3.2302
    -3.2300  -3.2295  -3.2288  -3.1939  -3.1903  -3.1837  -3.1835  -3.1770
    -3.1766  -3.1763  -3.1684  -3.1629  -3.1626  -3.1596  -3.1585  -3.1501
    -3.1489  -3.1453  -3.1451  -3.1448  -3.1446  -3.1389  -3.1384  -3.1372
    -3.1368  -3.1140  -3.0897  -3.0884  -3.0876  -3.0866  -3.0852  -3.0814
    -3.0803  -3.0712  -3.0704  -3.0701  -3.0697  -3.0593  -3.0590  -3.0459
    -3.0403  -2.8259  -2.6690  -2.6665  -2.2930  -2.2906  -2.0250  -2.0234
    -1.6354  -1.6343  -1.6337  -1.6320  -1.4974  -1.2681  -1.0909  -1.0906
     3.8484   4.2785   4.2827   4.2832   4.2849   4.3136   4.4445   4.4468
     5.1642   5.1673   5.2066   5.2096   5.6984   6.0533   6.0564   6.1768
     6.1770   6.4906   6.4925   6.6954   7.0251   7.0339   7.0369   7.0378
     7.0391   7.9874   8.0281   8.1345   8.1367   8.2502   8.2520   8.3271
     8.3294   8.3616   8.3636   8.5205   8.5896   8.5904   8.5915   8.5947
     8.7269   8.7295   9.1407   9.1430   9.1925   9.5376   9.7346   9.8397

     occupation numbers 
     1.0000   1.0000   1.0000   1.0000   1.0000   1.0000   1.0000   1.0000
     1.0000   1.0000   1.0000   1.0000   1.0000   1.0000   1.0000   1.0000
     1.0000   1.0000   1.0000   1.0000   1.0000   1.0000   1.0000   1.0000
     1.0000   1.0000   1.0000   1.0000   1.0000   1.0000   1.0000   1.0000
     1.0000   1.0000   1.0000   1.0000   1.0000   1.0000   1.0000   1.0000
     1.0000   1.0000   1.0000   1.0000   1.0000   1.0000   1.0000   1.0000
     1.0000   1.0000   1.0000   1.0000   1.0000   1.0000   1.0000   1.0000
     1.0000   1.0000   1.0000   1.0000   1.0000   1.0000   1.0000   1.0000
     1.0000   1.0000   1.0000   1.0000   1.0000   1.0000   1.0000   1.0000
     1.0000   1.0000   1.0000   1.0000   1.0000   1.0000   1.0000   1.0000
     1.0000   1.0000   1.0000   1.0000   1.0000   1.0000   1.0000   1.0000
     1.0000   1.0000   1.0000   1.0000   1.0000   1.0000   1.0000   1.0000
     1.0000   1.0000   1.0000   1.0000   1.0000   1.0000   1.0000   1.0000
     1.0000   1.0000   1.0000   1.0000   1.0000   1.0000   1.0000   1.0000
     1.0000   1.0000   1.0000   1.0000   1.0000   1.0000   1.0000   1.0000
     1.0000   1.0000   1.0000   1.0000   1.0000   1.0000   1.0000   1.0000
     1.0000   1.0000   1.0000   1.0000   1.0000   1.0000   1.0000   1.0000
     1.0000   1.0000   1.0000   1.0000   1.0000   1.0000   1.0000   1.0000

          k = 0.0000 0.4619 0.1228 ( 78818 PWs)   bands (ev):

    -5.2012  -4.9641  -4.9562  -4.8049  -4.7973  -4.7582  -4.7579  -4.7141
    -4.7122  -4.6824  -4.6823  -4.6730  -4.6516  -4.6510  -4.6467  -4.6459
    -3.3372  -3.3369  -3.3351  -3.3205  -3.3201  -3.3178  -3.3125  -3.3014
    -3.2999  -3.2981  -3.2858  -3.2847  -3.2845  -3.2765  -3.2744  -3.2728
    -3.2724  -3.2614  -3.2541  -3.2537  -3.2485  -3.2473  -3.2470  -3.2362
    -3.2270  -3.2062  -3.2056  -3.1960  -3.1948  -3.1947  -3.1926  -3.1759
    -3.1750  -3.1749  -3.1736  -3.1593  -3.1592  -3.1569  -3.1532  -3.1489
    -3.1488  -3.1437  -3.1427  -3.1379  -3.1375  -3.1373  -3.1357  -3.1346
    -3.1340  -3.1128  -3.1034  -3.0915  -3.0848  -3.0836  -3.0823  -3.0772
    -3.0766  -3.0751  -3.0696  -3.0674  -3.0668  -3.0633  -3.0631  -3.0478
    -3.0424  -2.8589  -2.8071  -2.4947  -2.4130  -2.0450  -2.0092  -2.0077
    -1.7712  -1.7699  -1.5857  -1.4826  -1.4817  -1.3370  -1.1207  -1.1205
     3.9866   4.1670   4.1692   4.3509   4.3699   4.3727   4.4785   4.4819
     4.8767   5.1485   5.1515   5.4729   5.4891   5.7999   6.2554   6.2566
     6.5879   6.5898   6.5930   6.6219   6.7434   6.7452   7.0691   7.3563
     7.3580   7.5090   7.8839   7.9341   8.0605   8.1341   8.1350   8.1862
     8.1883   8.4262   8.4296   8.5023   8.5495   8.6820   8.8248   8.8432
     8.8446   8.9428   8.9643   9.2139   9.3480   9.4946   9.6942   9.8033

     occupation numbers 
     1.0000   1.0000   1.0000   1.0000   1.0000   1.0000   1.0000   1.0000
     1.0000   1.0000   1.0000   1.0000   1.0000   1.0000   1.0000   1.0000
     1.0000   1.0000   1.0000   1.0000   1.0000   1.0000   1.0000   1.0000
     1.0000   1.0000   1.0000   1.0000   1.0000   1.0000   1.0000   1.0000
     1.0000   1.0000   1.0000   1.0000   1.0000   1.0000   1.0000   1.0000
     1.0000   1.0000   1.0000   1.0000   1.0000   1.0000   1.0000   1.0000
     1.0000   1.0000   1.0000   1.0000   1.0000   1.0000   1.0000   1.0000
     1.0000   1.0000   1.0000   1.0000   1.0000   1.0000   1.0000   1.0000
     1.0000   1.0000   1.0000   1.0000   1.0000   1.0000   1.0000   1.0000
     1.0000   1.0000   1.0000   1.0000   1.0000   1.0000   1.0000   1.0000
     1.0000   1.0000   1.0000   1.0000   1.0000   1.0000   1.0000   1.0000
     1.0000   1.0000   1.0000   1.0000   1.0000   1.0000   1.0000   1.0000
     1.0000   1.0000   1.0000   1.0000   1.0000   1.0000   1.0000   1.0000
     1.0000   1.0000   1.0000   1.0000   1.0000   1.0000   1.0000   1.0000
     1.0000   1.0000   1.0000   1.0000   1.0000   1.0000   1.0000   1.0000
     1.0000   1.0000   1.0000   1.0000   1.0000   1.0000   1.0000   1.0000
     1.0000   1.0000   1.0000   1.0000   1.0000   1.0000   1.0000   1.0000
     1.0000   1.0000   1.0000   1.0000   1.0000   1.0000   1.0000   1.0000

          k = 0.0000 0.4619 0.2456 ( 78849 PWs)   bands (ev):

    -5.1413  -5.0538  -4.9236  -4.8662  -4.7521  -4.7381  -4.7378  -4.7260
    -4.7100  -4.7099  -4.6894  -4.6770  -4.6483  -4.6477  -4.6432  -4.6425
    -3.3335  -3.3278  -3.3228  -3.3225  -3.3207  -3.3169  -3.3168  -3.3085
    -3.3010  -3.3008  -3.2919  -3.2905  -3.2818  -3.2770  -3.2739  -3.2736
    -3.2675  -3.2652  -3.2646  -3.2643  -3.2546  -3.2505  -3.2352  -3.2349
    -3.2140  -3.2136  -3.2121  -3.1996  -3.1950  -3.1902  -3.1894  -3.1877
    -3.1802  -3.1798  -3.1693  -3.1634  -3.1530  -3.1527  -3.1504  -3.1500
    -3.1385  -3.1362  -3.1343  -3.1310  -3.1302  -3.1297  -3.1286  -3.1275
    -3.1272  -3.1167  -3.1089  -3.1003  -3.0844  -3.0828  -3.0778  -3.0775
    -3.0720  -3.0715  -3.0681  -3.0679  -3.0635  -3.0593  -3.0587  -3.0532
    -3.0483  -2.9870  -2.7489  -2.6464  -2.1142  -1.9618  -1.9602  -1.8820
    -1.8805  -1.8158  -1.7758  -1.5226  -1.3329  -1.3323  -1.2056  -1.2055
     4.1531   4.1550   4.2354   4.2381   4.3619   4.4612   4.6387   4.7271
     4.7307   4.8867   4.9741   4.9772   5.8065   5.9652   6.3565   6.3585
     6.5104   6.5123   6.5598   6.9157   6.9774   6.9790   7.0386   7.1712
     7.4937   7.4958   7.6184   7.6409   7.7513   7.7543   7.9939   7.9960
     8.1554   8.3063   8.6343   8.6562   8.6593   8.7689   8.8442   8.8461
     9.0533   9.1871   9.2097   9.2420   9.3720   9.5407   9.5414   9.6992

     occupation numbers 
     1.0000   1.0000   1.0000   1.0000   1.0000   1.0000   1.0000   1.0000
     1.0000   1.0000   1.0000   1.0000   1.0000   1.0000   1.0000   1.0000
     1.0000   1.0000   1.0000   1.0000   1.0000   1.0000   1.0000   1.0000
     1.0000   1.0000   1.0000   1.0000   1.0000   1.0000   1.0000   1.0000
     1.0000   1.0000   1.0000   1.0000   1.0000   1.0000   1.0000   1.0000
     1.0000   1.0000   1.0000   1.0000   1.0000   1.0000   1.0000   1.0000
     1.0000   1.0000   1.0000   1.0000   1.0000   1.0000   1.0000   1.0000
     1.0000   1.0000   1.0000   1.0000   1.0000   1.0000   1.0000   1.0000
     1.0000   1.0000   1.0000   1.0000   1.0000   1.0000   1.0000   1.0000
     1.0000   1.0000   1.0000   1.0000   1.0000   1.0000   1.0000   1.0000
     1.0000   1.0000   1.0000   1.0000   1.0000   1.0000   1.0000   1.0000
     1.0000   1.0000   1.0000   1.0000   1.0000   1.0000   1.0000   1.0000
     1.0000   1.0000   1.0000   1.0000   1.0000   1.0000   1.0000   1.0000
     1.0000   1.0000   1.0000   1.0000   1.0000   1.0000   1.0000   1.0000
     1.0000   1.0000   1.0000   1.0000   1.0000   1.0000   1.0000   1.0000
     1.0000   1.0000   1.0000   1.0000   1.0000   1.0000   1.0000   1.0000
     1.0000   1.0000   1.0000   1.0000   1.0000   1.0000   1.0000   1.0000
     1.0000   1.0000   1.0000   1.0000   1.0000   1.0000   1.0000   1.0000

          k = 0.2000 0.3464 0.0000 ( 78840 PWs)   bands (ev):

    -5.2902  -4.9018  -4.9011  -4.8659  -4.8656  -4.7262  -4.7228  -4.7026
    -4.7022  -4.7020  -4.7017  -4.6579  -4.6574  -4.6533  -4.6458  -4.6444
    -3.3483  -3.3406  -3.3313  -3.3177  -3.3167  -3.3166  -3.3160  -3.3019
    -3.3012  -3.2978  -3.2974  -3.2961  -3.2957  -3.2919  -3.2910  -3.2812
    -3.2788  -3.2784  -3.2755  -3.2447  -3.2324  -3.2317  -3.2313  -3.2303
    -3.2291  -3.2282  -3.2250  -3.2079  -3.2072  -3.1799  -3.1793  -3.1721
    -3.1710  -3.1697  -3.1696  -3.1618  -3.1559  -3.1543  -3.1461  -3.1450
    -3.1447  -3.1439  -3.1437  -3.1424  -3.1364  -3.1360  -3.1356  -3.1224
    -3.1219  -3.0947  -3.0944  -3.0917  -3.0903  -3.0887  -3.0867  -3.0794
    -3.0787  -3.0716  -3.0715  -3.0707  -3.0704  -3.0578  -3.0471  -3.0463
    -3.0452  -2.7425  -2.7400  -2.5007  -2.4990  -2.0022  -2.0005  -1.9999
    -1.9976  -1.6369  -1.5554  -1.4370  -1.4360  -1.2083  -1.1576  -1.1575
     3.7258   3.9991   3.9997   4.2720   4.3943   4.3966   4.6406   4.6438
     4.6442   4.6466   5.0971   5.4643   5.4674   5.8960   6.1246   6.1270
     6.1970   6.2002   6.7735   6.7895   6.7931   7.4382   7.4400   7.5666
     7.8289   7.9499   7.9527   7.9536   7.9554   8.0958   8.1026   8.4528
     8.4532   8.4559   8.4568   8.5820   8.5848   8.6804   8.6823   8.8064
     8.8137   8.8169   9.0725   9.0739   9.1713   9.1726   9.8252   9.8453

     occupation numbers 
     1.0000   1.0000   1.0000   1.0000   1.0000   1.0000   1.0000   1.0000
     1.0000   1.0000   1.0000   1.0000   1.0000   1.0000   1.0000   1.0000
     1.0000   1.0000   1.0000   1.0000   1.0000   1.0000   1.0000   1.0000
     1.0000   1.0000   1.0000   1.0000   1.0000   1.0000   1.0000   1.0000
     1.0000   1.0000   1.0000   1.0000   1.0000   1.0000   1.0000   1.0000
     1.0000   1.0000   1.0000   1.0000   1.0000   1.0000   1.0000   1.0000
     1.0000   1.0000   1.0000   1.0000   1.0000   1.0000   1.0000   1.0000
     1.0000   1.0000   1.0000   1.0000   1.0000   1.0000   1.0000   1.0000
     1.0000   1.0000   1.0000   1.0000   1.0000   1.0000   1.0000   1.0000
     1.0000   1.0000   1.0000   1.0000   1.0000   1.0000   1.0000   1.0000
     1.0000   1.0000   1.0000   1.0000   1.0000   1.0000   1.0000   1.0000
     1.0000   1.0000   1.0000   1.0000   1.0000   1.0000   1.0000   1.0000
     1.0000   1.0000   1.0000   1.0000   1.0000   1.0000   1.0000   1.0000
     1.0000   1.0000   1.0000   1.0000   1.0000   1.0000   1.0000   1.0000
     1.0000   1.0000   1.0000   1.0000   1.0000   1.0000   1.0000   1.0000
     1.0000   1.0000   1.0000   1.0000   1.0000   1.0000   1.0000   1.0000
     1.0000   1.0000   1.0000   1.0000   1.0000   1.0000   1.0000   1.0000
     1.0000   1.0000   1.0000   1.0000   1.0000   1.0000   1.0000   1.0000

          k = 0.2000 0.3464 0.1228 ( 78810 PWs)   bands (ev):

    -5.2674  -5.0011  -4.8551  -4.8548  -4.8235  -4.7393  -4.7390  -4.7270
    -4.7202  -4.6771  -4.6770  -4.6618  -4.6576  -4.6570  -4.6497  -4.6383
    -3.3429  -3.3399  -3.3302  -3.3254  -3.3138  -3.3133  -3.3130  -3.3063
    -3.3059  -3.3050  -3.2943  -3.2941  -3.2920  -3.2877  -3.2830  -3.2808
    -3.2806  -3.2760  -3.2635  -3.2584  -3.2523  -3.2515  -3.2494  -3.2235
    -3.2166  -3.2155  -3.2118  -3.2111  -3.1982  -3.1853  -3.1792  -3.1779
    -3.1773  -3.1712  -3.1705  -3.1659  -3.1545  -3.1538  -3.1534  -3.1496
    -3.1408  -3.1363  -3.1355  -3.1353  -3.1334  -3.1328  -3.1311  -3.1198
    -3.1133  -3.1002  -3.0921  -3.0918  -3.0910  -3.0893  -3.0823  -3.0790
    -3.0779  -3.0765  -3.0757  -3.0671  -3.0663  -3.0622  -3.0497  -3.0490
    -3.0466  -2.9220  -2.4904  -2.4821  -2.4805  -2.1849  -2.1836  -1.7845
    -1.7837  -1.6470  -1.6283  -1.5034  -1.3666  -1.2193  -1.2099  -1.2097
     3.8758   3.9275   4.1732   4.2084   4.3489   4.3507   4.4385   4.4393
     4.9118   4.9132   4.9866   5.5252   5.5331   5.5360   5.9236   6.1530
     6.1549   6.4755   6.8303   6.9408   7.1364   7.4620   7.4637   7.5258
     7.5276   7.6098   7.9049   7.9975   7.9990   8.0340   8.0839   8.2404
     8.3314   8.3320   8.3465   8.7674   8.7764   8.8323   8.8335   8.8595
     8.8643   8.8667   9.0326   9.0333   9.0991   9.3555   9.7901   9.8015

     occupation numbers 
     1.0000   1.0000   1.0000   1.0000   1.0000   1.0000   1.0000   1.0000
     1.0000   1.0000   1.0000   1.0000   1.0000   1.0000   1.0000   1.0000
     1.0000   1.0000   1.0000   1.0000   1.0000   1.0000   1.0000   1.0000
     1.0000   1.0000   1.0000   1.0000   1.0000   1.0000   1.0000   1.0000
     1.0000   1.0000   1.0000   1.0000   1.0000   1.0000   1.0000   1.0000
     1.0000   1.0000   1.0000   1.0000   1.0000   1.0000   1.0000   1.0000
     1.0000   1.0000   1.0000   1.0000   1.0000   1.0000   1.0000   1.0000
     1.0000   1.0000   1.0000   1.0000   1.0000   1.0000   1.0000   1.0000
     1.0000   1.0000   1.0000   1.0000   1.0000   1.0000   1.0000   1.0000
     1.0000   1.0000   1.0000   1.0000   1.0000   1.0000   1.0000   1.0000
     1.0000   1.0000   1.0000   1.0000   1.0000   1.0000   1.0000   1.0000
     1.0000   1.0000   1.0000   1.0000   1.0000   1.0000   1.0000   1.0000
     1.0000   1.0000   1.0000   1.0000   1.0000   1.0000   1.0000   1.0000
     1.0000   1.0000   1.0000   1.0000   1.0000   1.0000   1.0000   1.0000
     1.0000   1.0000   1.0000   1.0000   1.0000   1.0000   1.0000   1.0000
     1.0000   1.0000   1.0000   1.0000   1.0000   1.0000   1.0000   1.0000
     1.0000   1.0000   1.0000   1.0000   1.0000   1.0000   1.0000   1.0000
     1.0000   1.0000   1.0000   1.0000   1.0000   1.0000   1.0000   1.0000

          k = 0.2000 0.3464 0.2456 ( 78818 PWs)   bands (ev):

    -5.2030  -5.1082  -4.8251  -4.8249  -4.7831  -4.7828  -4.7717  -4.7414
    -4.7045  -4.6825  -4.6644  -4.6641  -4.6578  -4.6569  -4.6453  -4.6384
    -3.3377  -3.3324  -3.3276  -3.3272  -3.3196  -3.3107  -3.3103  -3.3071
    -3.3065  -3.3047  -3.2975  -3.2931  -3.2925  -3.2882  -3.2839  -3.2798
    -3.2792  -3.2777  -3.2685  -3.2604  -3.2533  -3.2528  -3.2401  -3.2339
    -3.2332  -3.2164  -3.2125  -3.2009  -3.1964  -3.1956  -3.1841  -3.1837
    -3.1756  -3.1671  -3.1663  -3.1617  -3.1610  -3.1601  -3.1542  -3.1417
    -3.1351  -3.1308  -3.1302  -3.1288  -3.1284  -3.1281  -3.1173  -3.1048
    -3.1036  -3.1032  -3.0956  -3.0908  -3.0866  -3.0861  -3.0855  -3.0808
    -3.0803  -3.0793  -3.0778  -3.0725  -3.0633  -3.0626  -3.0560  -3.0552
    -3.0490  -3.0286  -2.4255  -2.4239  -2.3272  -2.3257  -2.1892  -1.8845
    -1.6026  -1.5604  -1.5582  -1.5575  -1.3540  -1.3536  -1.3024  -1.2513
     3.9593   4.0728   4.2845   4.2952   4.2966   4.3192   4.3204   4.4290
     4.7254   4.8642   5.2093   5.2109   5.4671   5.4686   6.0264   6.2140
     6.4412   6.4421   6.9704   6.9716   7.3533   7.3802   7.4779   7.5511
     7.5528   7.7263   7.7276   7.7388   7.7700   7.8006   7.8643   7.9516
     8.3189   8.6002   8.6009   8.6225   8.7389   8.7979   8.8194   8.8208
     9.0330   9.0341   9.0366   9.0397   9.3808   9.5376   9.6489   9.6896

     occupation numbers 
     1.0000   1.0000   1.0000   1.0000   1.0000   1.0000   1.0000   1.0000
     1.0000   1.0000   1.0000   1.0000   1.0000   1.0000   1.0000   1.0000
     1.0000   1.0000   1.0000   1.0000   1.0000   1.0000   1.0000   1.0000
     1.0000   1.0000   1.0000   1.0000   1.0000   1.0000   1.0000   1.0000
     1.0000   1.0000   1.0000   1.0000   1.0000   1.0000   1.0000   1.0000
     1.0000   1.0000   1.0000   1.0000   1.0000   1.0000   1.0000   1.0000
     1.0000   1.0000   1.0000   1.0000   1.0000   1.0000   1.0000   1.0000
     1.0000   1.0000   1.0000   1.0000   1.0000   1.0000   1.0000   1.0000
     1.0000   1.0000   1.0000   1.0000   1.0000   1.0000   1.0000   1.0000
     1.0000   1.0000   1.0000   1.0000   1.0000   1.0000   1.0000   1.0000
     1.0000   1.0000   1.0000   1.0000   1.0000   1.0000   1.0000   1.0000
     1.0000   1.0000   1.0000   1.0000   1.0000   1.0000   1.0000   1.0000
     1.0000   1.0000   1.0000   1.0000   1.0000   1.0000   1.0000   1.0000
     1.0000   1.0000   1.0000   1.0000   1.0000   1.0000   1.0000   1.0000
     1.0000   1.0000   1.0000   1.0000   1.0000   1.0000   1.0000   1.0000
     1.0000   1.0000   1.0000   1.0000   1.0000   1.0000   1.0000   1.0000
     1.0000   1.0000   1.0000   1.0000   1.0000   1.0000   1.0000   1.0000
     1.0000   1.0000   1.0000   1.0000   1.0000   1.0000   1.0000   1.0000

          k = 0.2000 0.5774 0.0000 ( 78832 PWs)   bands (ev):

    -5.0563  -5.0561  -4.8806  -4.7863  -4.7858  -4.7855  -4.7854  -4.7080
    -4.7074  -4.6999  -4.6836  -4.6832  -4.6605  -4.6601  -4.6381  -4.6377
    -3.3592  -3.3271  -3.3156  -3.3147  -3.3112  -3.3105  -3.2947  -3.2941
    -3.2938  -3.2935  -3.2790  -3.2783  -3.2705  -3.2667  -3.2652  -3.2650
    -3.2647  -3.2597  -3.2593  -3.2460  -3.2450  -3.2449  -3.2442  -3.2368
    -3.2357  -3.2231  -3.2221  -3.2182  -3.1988  -3.1910  -3.1802  -3.1762
    -3.1751  -3.1709  -3.1697  -3.1654  -3.1648  -3.1644  -3.1641  -3.1638
    -3.1633  -3.1564  -3.1453  -3.1312  -3.1301  -3.1274  -3.1270  -3.1268
    -3.1193  -3.1186  -3.1043  -3.0998  -3.0880  -3.0876  -3.0845  -3.0834
    -3.0831  -3.0828  -3.0724  -3.0715  -3.0682  -3.0623  -3.0620  -3.0606
    -2.9552  -2.9546  -2.5703  -2.4387  -2.4372  -2.4365  -2.4343  -2.0544
    -2.0522  -1.5417  -1.3649  -1.3639  -1.3405  -1.3401  -1.1788  -1.1528
     4.1533   4.1553   4.1731   4.1777   4.5036   4.7339   4.8933   4.9233
     4.9263   5.4850   5.5934   5.5947   5.5956   5.6002   5.9008   5.9779
     6.2949   6.2979   6.3168   6.3183   6.9042   7.0016   7.0024   7.2435
     7.6722   7.6988   7.7016   7.7025   8.0846   8.0856   8.1834   8.1845
     8.1865   8.1892   8.4129   8.4149   8.6569   8.6602   8.6605   8.6616
     8.7295   8.7312   8.7745   8.9564   9.4286   9.4306   9.4389   9.4414

     occupation numbers 
     1.0000   1.0000   1.0000   1.0000   1.0000   1.0000   1.0000   1.0000
     1.0000   1.0000   1.0000   1.0000   1.0000   1.0000   1.0000   1.0000
     1.0000   1.0000   1.0000   1.0000   1.0000   1.0000   1.0000   1.0000
     1.0000   1.0000   1.0000   1.0000   1.0000   1.0000   1.0000   1.0000
     1.0000   1.0000   1.0000   1.0000   1.0000   1.0000   1.0000   1.0000
     1.0000   1.0000   1.0000   1.0000   1.0000   1.0000   1.0000   1.0000
     1.0000   1.0000   1.0000   1.0000   1.0000   1.0000   1.0000   1.0000
     1.0000   1.0000   1.0000   1.0000   1.0000   1.0000   1.0000   1.0000
     1.0000   1.0000   1.0000   1.0000   1.0000   1.0000   1.0000   1.0000
     1.0000   1.0000   1.0000   1.0000   1.0000   1.0000   1.0000   1.0000
     1.0000   1.0000   1.0000   1.0000   1.0000   1.0000   1.0000   1.0000
     1.0000   1.0000   1.0000   1.0000   1.0000   1.0000   1.0000   1.0000
     1.0000   1.0000   1.0000   1.0000   1.0000   1.0000   1.0000   1.0000
     1.0000   1.0000   1.0000   1.0000   1.0000   1.0000   1.0000   1.0000
     1.0000   1.0000   1.0000   1.0000   1.0000   1.0000   1.0000   1.0000
     1.0000   1.0000   1.0000   1.0000   1.0000   1.0000   1.0000   1.0000
     1.0000   1.0000   1.0000   1.0000   1.0000   1.0000   1.0000   1.0000
     1.0000   1.0000   1.0000   1.0000   1.0000   1.0000   1.0000   1.0000

          k = 0.2000 0.5774 0.1228 ( 78804 PWs)   bands (ev):

    -5.0393  -5.0391  -4.8691  -4.8510  -4.8508  -4.7468  -4.7377  -4.7375
    -4.6951  -4.6853  -4.6850  -4.6810  -4.6599  -4.6580  -4.6476  -4.6359
    -3.3534  -3.3231  -3.3137  -3.3128  -3.3116  -3.3109  -3.3043  -3.3040
    -3.2858  -3.2847  -3.2842  -3.2778  -3.2775  -3.2772  -3.2764  -3.2738
    -3.2574  -3.2541  -3.2527  -3.2516  -3.2491  -3.2484  -3.2456  -3.2328
    -3.2268  -3.2258  -3.2206  -3.2102  -3.2042  -3.2031  -3.1843  -3.1715
    -3.1704  -3.1695  -3.1673  -3.1647  -3.1645  -3.1639  -3.1597  -3.1592
    -3.1541  -3.1467  -3.1379  -3.1350  -3.1329  -3.1325  -3.1303  -3.1272
    -3.1147  -3.1141  -3.1024  -3.0941  -3.0934  -3.0916  -3.0910  -3.0860
    -3.0767  -3.0762  -3.0755  -3.0738  -3.0718  -3.0645  -3.0629  -3.0628
    -2.9387  -2.9381  -2.6405  -2.6399  -2.5513  -2.2452  -2.1821  -2.1818
    -1.8265  -1.5336  -1.4217  -1.4177  -1.4174  -1.3062  -1.2101  -1.1875
     4.1467   4.2657   4.2663   4.2708   4.4911   4.6363   4.7106   4.8454
     5.1860   5.2158   5.2185   5.4715   5.8524   5.9639   5.9709   5.9730
     6.1399   6.3855   6.3869   6.6637   6.9449   6.9462   7.0769   7.2200
     7.4682   7.5918   7.6475   7.6482   7.7196   7.8431   8.0792   8.0804
     8.0808   8.3578   8.3592   8.4601   8.7148   8.7425   8.7440   8.7473
     8.8568   8.9206   8.9223   9.0161   9.3725   9.3746   9.4552   9.4580

     occupation numbers 
     1.0000   1.0000   1.0000   1.0000   1.0000   1.0000   1.0000   1.0000
     1.0000   1.0000   1.0000   1.0000   1.0000   1.0000   1.0000   1.0000
     1.0000   1.0000   1.0000   1.0000   1.0000   1.0000   1.0000   1.0000
     1.0000   1.0000   1.0000   1.0000   1.0000   1.0000   1.0000   1.0000
     1.0000   1.0000   1.0000   1.0000   1.0000   1.0000   1.0000   1.0000
     1.0000   1.0000   1.0000   1.0000   1.0000   1.0000   1.0000   1.0000
     1.0000   1.0000   1.0000   1.0000   1.0000   1.0000   1.0000   1.0000
     1.0000   1.0000   1.0000   1.0000   1.0000   1.0000   1.0000   1.0000
     1.0000   1.0000   1.0000   1.0000   1.0000   1.0000   1.0000   1.0000
     1.0000   1.0000   1.0000   1.0000   1.0000   1.0000   1.0000   1.0000
     1.0000   1.0000   1.0000   1.0000   1.0000   1.0000   1.0000   1.0000
     1.0000   1.0000   1.0000   1.0000   1.0000   1.0000   1.0000   1.0000
     1.0000   1.0000   1.0000   1.0000   1.0000   1.0000   1.0000   1.0000
     1.0000   1.0000   1.0000   1.0000   1.0000   1.0000   1.0000   1.0000
     1.0000   1.0000   1.0000   1.0000   1.0000   1.0000   1.0000   1.0000
     1.0000   1.0000   1.0000   1.0000   1.0000   1.0000   1.0000   1.0000
     1.0000   1.0000   1.0000   1.0000   1.0000   1.0000   1.0000   1.0000
     1.0000   1.0000   1.0000   1.0000   1.0000   1.0000   1.0000   1.0000

          k = 0.2000 0.5774 0.2456 ( 78823 PWs)   bands (ev):

    -4.9920  -4.9918  -4.9243  -4.9242  -4.8374  -4.7930  -4.7082  -4.7077
    -4.6916  -4.6914  -4.6821  -4.6675  -4.6644  -4.6602  -4.6501  -4.6406
    -3.3368  -3.3141  -3.3132  -3.3118  -3.3104  -3.3100  -3.3098  -3.3058
    -3.3047  -3.2941  -3.2934  -3.2930  -3.2870  -3.2815  -3.2700  -3.2691
    -3.2588  -3.2580  -3.2472  -3.2434  -3.2421  -3.2406  -3.2336  -3.2329
    -3.2317  -3.2283  -3.2273  -3.2232  -3.2145  -3.2071  -3.1822  -3.1717
    -3.1654  -3.1645  -3.1621  -3.1620  -3.1610  -3.1520  -3.1514  -3.1494
    -3.1479  -3.1439  -3.1421  -3.1417  -3.1316  -3.1310  -3.1285  -3.1213
    -3.1079  -3.1072  -3.1012  -3.0997  -3.0991  -3.0951  -3.0899  -3.0874
    -3.0842  -3.0785  -3.0757  -3.0723  -3.0713  -3.0705  -3.0651  -3.0648
    -2.8856  -2.8849  -2.7885  -2.7878  -2.4931  -2.3921  -1.8972  -1.8971
    -1.6230  -1.6228  -1.5863  -1.5099  -1.4715  -1.3667  -1.2539  -1.2130
     4.2467   4.4321   4.4601   4.4944   4.5125   4.5168   4.5644   4.6828
     4.8468   4.8500   5.4616   5.5227   5.6961   5.7012   6.3154   6.3172
     6.5046   6.5057   6.5629   6.8662   6.8686   7.0305   7.1345   7.1486
     7.1494   7.2113   7.2931   7.3389   7.5254   8.0139   8.1064   8.1075
     8.1738   8.2057   8.2069   8.3114   8.5258   8.5491   9.0314   9.0324
     9.0926   9.1129   9.2289   9.2305   9.2386   9.2398   9.4155   9.4180

     occupation numbers 
     1.0000   1.0000   1.0000   1.0000   1.0000   1.0000   1.0000   1.0000
     1.0000   1.0000   1.0000   1.0000   1.0000   1.0000   1.0000   1.0000
     1.0000   1.0000   1.0000   1.0000   1.0000   1.0000   1.0000   1.0000
     1.0000   1.0000   1.0000   1.0000   1.0000   1.0000   1.0000   1.0000
     1.0000   1.0000   1.0000   1.0000   1.0000   1.0000   1.0000   1.0000
     1.0000   1.0000   1.0000   1.0000   1.0000   1.0000   1.0000   1.0000
     1.0000   1.0000   1.0000   1.0000   1.0000   1.0000   1.0000   1.0000
     1.0000   1.0000   1.0000   1.0000   1.0000   1.0000   1.0000   1.0000
     1.0000   1.0000   1.0000   1.0000   1.0000   1.0000   1.0000   1.0000
     1.0000   1.0000   1.0000   1.0000   1.0000   1.0000   1.0000   1.0000
     1.0000   1.0000   1.0000   1.0000   1.0000   1.0000   1.0000   1.0000
     1.0000   1.0000   1.0000   1.0000   1.0000   1.0000   1.0000   1.0000
     1.0000   1.0000   1.0000   1.0000   1.0000   1.0000   1.0000   1.0000
     1.0000   1.0000   1.0000   1.0000   1.0000   1.0000   1.0000   1.0000
     1.0000   1.0000   1.0000   1.0000   1.0000   1.0000   1.0000   1.0000
     1.0000   1.0000   1.0000   1.0000   1.0000   1.0000   1.0000   1.0000
     1.0000   1.0000   1.0000   1.0000   1.0000   1.0000   1.0000   1.0000
     1.0000   1.0000   1.0000   1.0000   1.0000   1.0000   1.0000   1.0000

          k =-0.2000 0.1155 0.0000 ( 78863 PWs)   bands (ev):

    -5.4479  -4.9890  -4.9882  -4.8268  -4.7754  -4.7753  -4.7546  -4.6869
    -4.6864  -4.6658  -4.6656  -4.6650  -4.6647  -4.6520  -4.6480  -4.6472
    -3.3628  -3.3505  -3.3369  -3.3349  -3.3295  -3.3289  -3.3262  -3.3237
    -3.3236  -3.3162  -3.3115  -3.3098  -3.3051  -3.3050  -3.3044  -3.3039
    -3.2984  -3.2961  -3.2923  -3.2879  -3.2873  -3.2180  -3.2179  -3.2168
    -3.2165  -3.2163  -3.2158  -3.2127  -3.1948  -3.1948  -3.1745  -3.1737
    -3.1720  -3.1499  -3.1483  -3.1434  -3.1405  -3.1399  -3.1338  -3.1298
    -3.1293  -3.1285  -3.1273  -3.1203  -3.1199  -3.1167  -3.1165  -3.1159
    -3.1159  -3.0904  -3.0892  -3.0795  -3.0751  -3.0736  -3.0665  -3.0651
    -3.0644  -3.0640  -3.0637  -3.0635  -3.0624  -3.0502  -3.0406  -3.0398
    -3.0339  -2.8950  -2.8926  -2.2747  -1.9342  -1.9332  -1.8445  -1.8427
    -1.6830  -1.6256  -1.6247  -1.6245  -1.6231  -1.2072  -1.2064  -1.1759
     3.4639   3.9176   3.9202   3.9214   3.9232   4.0337   4.0366   4.1257
     4.1747   4.1763   5.1135   5.1159   5.2920   5.9269   6.0957   6.0975
     6.3555   6.3580   7.1525   7.1536   7.6689   7.7234   7.7255   7.7265
[...]
     atom    6 type  1   force =    -0.00006657    0.00018278   -0.00008250
     atom    7 type  1   force =    -0.00014946   -0.00004834   -0.00008975
     atom    8 type  1   force =     0.00016598   -0.00013480   -0.00007354
     atom    9 type  1   force =     0.00049048   -0.00016977    0.00044072
     atom   10 type  1   force =     0.00168556    0.00086457    0.00125551
     atom   11 type  1   force =     0.00019239   -0.00066962    0.00084006
     atom   12 type  1   force =    -0.00002033    0.00000014    0.00015819
     atom   13 type  1   force =     0.00004813   -0.00004578   -0.00026135
     atom   14 type  1   force =    -0.00002461    0.00000572   -0.00019277
     atom   15 type  1   force =    -0.00003267    0.00004114   -0.00022785
     atom   16 type  1   force =     0.00002857   -0.00000094   -0.00004341
     atom   17 type  2   force =    -0.00361911   -0.00002651   -0.00601239
     atom   18 type  2   force =     0.00062772   -0.00000033   -0.00025644
     atom   19 type  2   force =     0.00012947   -0.00028744   -0.00025644
     atom   20 type  2   force =     0.00012942    0.00028795   -0.00025520
     atom   21 type  2   force =    -0.00001367   -0.00000007    0.00014244
     atom   22 type  2   force =     0.00002313   -0.00000638    0.00017878
     atom   23 type  2   force =     0.00000129   -0.00001264    0.00018170
     atom   24 type  2   force =    -0.00000963    0.00001893    0.00017592
     atom   25 type  2   force =     0.00019452   -0.00012941    0.00041709
     atom   26 type  2   force =    -0.00009711   -0.00003831    0.00014706
     atom   27 type  2   force =    -0.00003026    0.00016830    0.00028281
     atom   28 type  2   force =    -0.00000435   -0.00000035   -0.00003920
     atom   29 type  2   force =    -0.00017281    0.00008182    0.00019189
     atom   30 type  2   force =     0.00027383    0.00017613    0.00037728
     atom   31 type  2   force =    -0.00003103   -0.00025776    0.00028443
     atom   32 type  2   force =    -0.00000496    0.00000002   -0.00004150
     The non-local contrib.  to forces
     atom    1 type  1   force =    -0.00028047    0.00000149    0.00334795
     atom    2 type  1   force =     0.00014323    0.00023664    0.00010256
     atom    3 type  1   force =    -0.00019590   -0.00019768    0.00007727
     atom    4 type  1   force =     0.00021100   -0.00004060    0.00013468
     atom    5 type  1   force =    -0.00014909    0.00000027    0.00101105
     atom    6 type  1   force =     0.00015020   -0.00034547    0.00089928
     atom    7 type  1   force =     0.00027977    0.00007441    0.00089425
     atom    8 type  1   force =    -0.00031938    0.00027095    0.00090924
     atom    9 type  1   force =     0.00057059   -0.00039098   -0.00038352
     atom   10 type  1   force =     0.00252542    0.00153092    0.00065067
     atom   11 type  1   force =    -0.00011641   -0.00111636    0.00012526
     atom   12 type  1   force =     0.00002676   -0.00000256    0.00031647
     atom   13 type  1   force =    -0.00001501    0.00003578    0.00116383
     atom   14 type  1   force =    -0.00000183   -0.00002149    0.00090041
     atom   15 type  1   force =     0.00004146   -0.00001074    0.00103075
     atom   16 type  1   force =    -0.00004025   -0.00000313    0.00063326
     atom   17 type  2   force =    -0.00335897    0.00000583    0.00623935
     atom   18 type  2   force =     0.00254176    0.00003916    0.01210852
     atom   19 type  2   force =     0.00053389   -0.00115829    0.01208617
     atom   20 type  2   force =     0.00060616    0.00111866    0.01213579
     atom   21 type  2   force =    -0.00007319   -0.00000015    0.01378116
     atom   22 type  2   force =     0.00011933    0.00003946    0.01390202
     atom   23 type  2   force =    -0.00005105   -0.00009828    0.01388169
     atom   24 type  2   force =     0.00001765    0.00005890    0.01392061
     atom   25 type  2   force =     0.00126156   -0.00078770    0.01455612
     atom   26 type  2   force =    -0.00059604   -0.00028170    0.01369860
     atom   27 type  2   force =    -0.00010549    0.00107267    0.01412925
     atom   28 type  2   force =    -0.00002493   -0.00000116    0.01312014
     atom   29 type  2   force =    -0.00069204    0.00038169    0.01398454
     atom   30 type  2   force =     0.00100697    0.00060034    0.01486451
     atom   31 type  2   force =    -0.00003189   -0.00098108    0.01442316
     atom   32 type  2   force =    -0.00003794   -0.00000024    0.01279947
     The ionic contribution  to forces
     atom    1 type  1   force =    -0.02254386   -0.00000000    0.23824712
     atom    2 type  1   force =     0.00951217   -0.00000000    0.15249448
     atom    3 type  1   force =     0.00056925   -0.00516317    0.15251501
     atom    4 type  1   force =     0.00056925    0.00516317    0.15251501
     atom    5 type  1   force =    -0.00362270   -0.00000000    0.17585294
     atom    6 type  1   force =     0.00281228   -0.00000000    0.16089412
     atom    7 type  1   force =     0.00009434   -0.00156920    0.16088662
     atom    8 type  1   force =     0.00009434    0.00156920    0.16088662
     atom    9 type  1   force =    -0.00218535   -0.01126352    0.09958008
     atom   10 type  1   force =     0.06492521    0.05022871    0.14060933
     atom   11 type  1   force =    -0.02188286   -0.03860135    0.11997240
     atom   12 type  1   force =     0.00796811   -0.00002828    0.13821055
     atom   13 type  1   force =     0.00085440   -0.00073251    0.16503971
     atom   14 type  1   force =    -0.00080967   -0.00022598    0.16402887
     atom   15 type  1   force =    -0.00041630    0.00095967    0.16453521
     atom   16 type  1   force =     0.00038717   -0.00000109    0.16286410
     atom   17 type  2   force =    -0.04849519   -0.00034097   -0.23514424
     atom   18 type  2   force =     0.00956617   -0.00000000   -0.16113938
     atom   19 type  2   force =     0.00082618   -0.00504598   -0.16113926
     atom   20 type  2   force =     0.00082618    0.00504598   -0.16113926
     atom   21 type  2   force =    -0.00025617   -0.00000000   -0.14812151
     atom   22 type  2   force =     0.00024581   -0.00000000   -0.14922835
     atom   23 type  2   force =     0.00000247   -0.00014049   -0.14922836
     atom   24 type  2   force =     0.00000247    0.00014049   -0.14922836
     atom   25 type  2   force =     0.00416694   -0.00310974   -0.14623591
     atom   26 type  2   force =    -0.00334051   -0.00121719   -0.15081597
     atom   27 type  2   force =    -0.00122576    0.00433225   -0.14851988
     atom   28 type  2   force =     0.00086805   -0.00000271   -0.15179748
     atom   29 type  2   force =    -0.00335180    0.00121687   -0.15085904
     atom   30 type  2   force =     0.00420819    0.00315557   -0.14618904
     atom   31 type  2   force =    -0.00125076   -0.00436696   -0.14853025
     atom   32 type  2   force =     0.00088195   -0.00000276   -0.15181586
     The local contribution  to forces
     atom    1 type  1   force =     0.02321793    0.00000973   -0.23947877
     atom    2 type  1   force =    -0.00972927   -0.00036053   -0.15238300
     atom    3 type  1   force =    -0.00025856    0.00545786   -0.15234190
     atom    4 type  1   force =    -0.00089963   -0.00510493   -0.15246321
     atom    5 type  1   force =     0.00387539   -0.00001013   -0.17727670
     atom    6 type  1   force =    -0.00307517    0.00055551   -0.16198528
     atom    7 type  1   force =    -0.00055397    0.00146594   -0.16196719
     atom    8 type  1   force =     0.00042557   -0.00201164   -0.16198270
     atom    9 type  1   force =     0.00210149    0.01152245   -0.09877188
     atom   10 type  1   force =    -0.06597856   -0.05104185   -0.14010298
     atom   11 type  1   force =     0.02224361    0.03916358   -0.11930672
     atom   12 type  1   force =    -0.00798419    0.00002508   -0.13852201
     atom   13 type  1   force =    -0.00076923    0.00063912   -0.16649004
     atom   14 type  1   force =     0.00077048    0.00025582   -0.16511686
     atom   15 type  1   force =     0.00033067   -0.00089219   -0.16581308
     atom   16 type  1   force =    -0.00030788   -0.00000325   -0.16352612
     atom   17 type  2   force =     0.04802419    0.00030877    0.22286939
     atom   18 type  2   force =    -0.01137717   -0.00003298    0.14910052
     atom   19 type  2   force =    -0.00121264    0.00586726    0.14912055
     atom   20 type  2   force =    -0.00127462   -0.00583406    0.14907760
     atom   21 type  2   force =     0.00031270    0.00000007    0.13493416
     atom   22 type  2   force =    -0.00033731   -0.00004480    0.13596082
     atom   23 type  2   force =     0.00004836    0.00022247    0.13598250
     atom   24 type  2   force =    -0.00002941   -0.00017775    0.13594253
     atom   25 type  2   force =    -0.00518293    0.00373445    0.13256804
     atom   26 type  2   force =     0.00381561    0.00145528    0.13769818
     atom   27 type  2   force =     0.00128986   -0.00519548    0.13512547
     atom   28 type  2   force =    -0.00084129    0.00000135    0.13905103
     atom   29 type  2   force =     0.00384219   -0.00150097    0.13749587
     atom   30 type  2   force =    -0.00489942   -0.00355592    0.13216328
     atom   31 type  2   force =     0.00125121    0.00505011    0.13483697
     atom   32 type  2   force =    -0.00085128    0.00000370    0.13935467
     The core correction contribution to forces
     atom    1 type  1   force =    -0.00010490    0.00000011    0.00035003
     atom    2 type  1   force =     0.00001379    0.00002260    0.00002965
     atom    3 type  1   force =    -0.00001962   -0.00001952    0.00002587
     atom    4 type  1   force =     0.00001920   -0.00000313    0.00003310
     atom    5 type  1   force =    -0.00001056   -0.00000059    0.00011763
     atom    6 type  1   force =     0.00001189   -0.00003742    0.00008861
     atom    7 type  1   force =     0.00002980    0.00001098    0.00009007
     atom    8 type  1   force =    -0.00003400    0.00002705    0.00008683
     atom    9 type  1   force =    -0.00001250   -0.00004083   -0.00013782
     atom   10 type  1   force =     0.00023157    0.00018203   -0.00001027
     atom   11 type  1   force =    -0.00008341   -0.00014080   -0.00007400
     atom   12 type  1   force =     0.00000012    0.00000016    0.00004455
     atom   13 type  1   force =    -0.00000925    0.00000822    0.00012270
     atom   14 type  1   force =     0.00000445   -0.00000087    0.00010331
     atom   15 type  1   force =     0.00000533   -0.00000768    0.00011298
     atom   16 type  1   force =    -0.00000469    0.00000025    0.00007560
     atom   17 type  2   force =     0.00020659    0.00000045   -0.00001762
     atom   18 type  2   force =    -0.00009894   -0.00000275   -0.00036301
     atom   19 type  2   force =    -0.00002058    0.00004521   -0.00036156
     atom   20 type  2   force =    -0.00002553   -0.00004243   -0.00036467
     atom   21 type  2   force =     0.00000271    0.00000000   -0.00042388
     atom   22 type  2   force =    -0.00000455   -0.00000167   -0.00042919
     atom   23 type  2   force =     0.00000210    0.00000384   -0.00042829
     atom   24 type  2   force =    -0.00000079   -0.00000218   -0.00042995
     atom   25 type  2   force =    -0.00005014    0.00003116   -0.00045565
     atom   26 type  2   force =     0.00002274    0.00001081   -0.00042279
     atom   27 type  2   force =     0.00000392   -0.00004209   -0.00043929
     atom   28 type  2   force =     0.00000105    0.00000004   -0.00040022
     atom   29 type  2   force =     0.00002681   -0.00001490   -0.00043521
     atom   30 type  2   force =    -0.00003939   -0.00002339   -0.00046907
     atom   31 type  2   force =     0.00000107    0.00003824   -0.00045208
     atom   32 type  2   force =     0.00000145    0.00000002   -0.00038729
     The Hubbard contrib.    to forces
     atom    1 type  1   force =     0.00000000    0.00000000    0.00000000
     atom    2 type  1   force =     0.00000000    0.00000000    0.00000000
     atom    3 type  1   force =     0.00000000    0.00000000    0.00000000
     atom    4 type  1   force =     0.00000000    0.00000000    0.00000000
     atom    5 type  1   force =     0.00000000    0.00000000    0.00000000
     atom    6 type  1   force =     0.00000000    0.00000000    0.00000000
     atom    7 type  1   force =     0.00000000    0.00000000    0.00000000
     atom    8 type  1   force =     0.00000000    0.00000000    0.00000000
     atom    9 type  1   force =     0.00000000    0.00000000    0.00000000
     atom   10 type  1   force =     0.00000000    0.00000000    0.00000000
     atom   11 type  1   force =     0.00000000    0.00000000    0.00000000
     atom   12 type  1   force =     0.00000000    0.00000000    0.00000000
     atom   13 type  1   force =     0.00000000    0.00000000    0.00000000
     atom   14 type  1   force =     0.00000000    0.00000000    0.00000000
     atom   15 type  1   force =     0.00000000    0.00000000    0.00000000
     atom   16 type  1   force =     0.00000000    0.00000000    0.00000000
     atom   17 type  2   force =     0.00000000    0.00000000    0.00000000
     atom   18 type  2   force =     0.00000000    0.00000000    0.00000000
     atom   19 type  2   force =     0.00000000    0.00000000    0.00000000
     atom   20 type  2   force =     0.00000000    0.00000000    0.00000000
     atom   21 type  2   force =     0.00000000    0.00000000    0.00000000
     atom   22 type  2   force =     0.00000000    0.00000000    0.00000000
     atom   23 type  2   force =     0.00000000    0.00000000    0.00000000
     atom   24 type  2   force =     0.00000000    0.00000000    0.00000000
     atom   25 type  2   force =     0.00000000    0.00000000    0.00000000
     atom   26 type  2   force =     0.00000000    0.00000000    0.00000000
     atom   27 type  2   force =     0.00000000    0.00000000    0.00000000
     atom   28 type  2   force =     0.00000000    0.00000000    0.00000000
     atom   29 type  2   force =     0.00000000    0.00000000    0.00000000
     atom   30 type  2   force =     0.00000000    0.00000000    0.00000000
     atom   31 type  2   force =     0.00000000    0.00000000    0.00000000
     atom   32 type  2   force =     0.00000000    0.00000000    0.00000000
     The SCF correction term to forces
     atom    1 type  1   force =     0.00002361   -0.00001016   -0.00002894
     atom    2 type  1   force =    -0.00002366   -0.00001620   -0.00003574
     atom    3 type  1   force =     0.00000493    0.00002752   -0.00003990
     atom    4 type  1   force =    -0.00000477   -0.00000261   -0.00003894
     atom    5 type  1   force =    -0.00003076    0.00001091   -0.00001134
     atom    6 type  1   force =     0.00003422    0.00001019    0.00002025
     atom    7 type  1   force =     0.00000058   -0.00003044    0.00000599
     atom    8 type  1   force =    -0.00000056    0.00000966    0.00002595
     atom    9 type  1   force =     0.00001623    0.00000313    0.00015333
     atom   10 type  1   force =    -0.00001809   -0.00003522    0.00010823
     atom   11 type  1   force =     0.00003145    0.00002534    0.00012261
     atom   12 type  1   force =    -0.00003116    0.00000577    0.00010811
     atom   13 type  1   force =    -0.00001279    0.00000364   -0.00009807
     atom   14 type  1   force =     0.00001194   -0.00000174   -0.00010903
     atom   15 type  1   force =     0.00000614   -0.00000790   -0.00009423
     atom   16 type  1   force =    -0.00000579    0.00000631   -0.00009078
     atom   17 type  2   force =     0.00000426   -0.00000057    0.00004020
     atom   18 type  2   force =    -0.00000411   -0.00000374    0.00003639
     atom   19 type  2   force =     0.00000260    0.00000439    0.00003715
     atom   20 type  2   force =    -0.00000279   -0.00000017    0.00003483
     atom   21 type  2   force =     0.00000027    0.00000003   -0.00002800
     atom   22 type  2   force =    -0.00000017    0.00000065   -0.00002704
     atom   23 type  2   force =    -0.00000061   -0.00000015   -0.00002635
     atom   24 type  2   force =     0.00000044   -0.00000052   -0.00002942
     atom   25 type  2   force =    -0.00000093    0.00000244   -0.00001603
     atom   26 type  2   force =     0.00000107   -0.00000548   -0.00001147
     atom   27 type  2   force =     0.00000719    0.00000097   -0.00001326
     atom   28 type  2   force =    -0.00000725    0.00000216   -0.00001319
     atom   29 type  2   force =     0.00000201   -0.00000084    0.00000521
     atom   30 type  2   force =    -0.00000254   -0.00000044    0.00000707
     atom   31 type  2   force =    -0.00000068    0.00000195    0.00000612
     atom   32 type  2   force =     0.00000085   -0.00000069    0.00000700

     Total force =     0.008029     Total SCF correction =     0.000357

     Writing output data file ../tmp/GaN_exc1.save/
 
     init_run     :     79.34s CPU     80.09s WALL (       1 calls)
     electrons    :   4283.48s CPU   4304.75s WALL (       1 calls)
     forces       :     35.63s CPU     35.66s WALL (       1 calls)

     Called by init_run:
     wfcinit      :     76.16s CPU     76.81s WALL (       1 calls)
     wfcinit:atom :      1.10s CPU      1.12s WALL (      63 calls)
     wfcinit:wfcr :     69.26s CPU     69.46s WALL (      63 calls)
     potinit      :      0.92s CPU      0.94s WALL (       1 calls)
     hinit0       :      1.99s CPU      2.07s WALL (       1 calls)

     Called by electrons:
     c_bands      :   3756.96s CPU   3775.53s WALL (      26 calls)
     sum_band     :    522.43s CPU    524.29s WALL (      26 calls)
     v_of_rho     :      3.02s CPU      3.46s WALL (      27 calls)
     v_h          :      0.19s CPU      0.19s WALL (      27 calls)
     v_xc         :      2.94s CPU      3.38s WALL (      28 calls)
     mix_rho      :      1.05s CPU      1.43s WALL (      26 calls)

     Called by c_bands:
     init_us_2    :     62.50s CPU     62.58s WALL (    3402 calls)
     cegterg      :   3416.06s CPU   3434.25s WALL (    1638 calls)

     Called by sum_band:
     sum_band:wei :      0.00s CPU      0.00s WALL (      26 calls)
     sum_band:loo :    522.14s CPU    523.99s WALL (      26 calls)
     sum_band:buf :     12.84s CPU     13.19s WALL (    1638 calls)
     sum_band:ini :     30.13s CPU     30.18s WALL (    1638 calls)

     Called by *egterg:
     cdiaghg      :     63.87s CPU     64.09s WALL (    5247 calls)
     cegterg:over :    262.65s CPU    262.74s WALL (    3609 calls)
     cegterg:upda :    261.73s CPU    272.10s WALL (    3609 calls)
     cegterg:last :    241.55s CPU    241.62s WALL (    2665 calls)
     cdiaghg:chol :      4.04s CPU      4.07s WALL (    5247 calls)
     cdiaghg:inve :      1.49s CPU      1.50s WALL (    5247 calls)
     cdiaghg:para :     10.79s CPU     10.86s WALL (   10494 calls)
     h_psi        :   2509.65s CPU   2517.02s WALL (    5310 calls)
     g_psi        :     14.74s CPU     14.77s WALL (    3609 calls)

     Called by h_psi:
     h_psi:calbec :    323.94s CPU    324.06s WALL (    5310 calls)
     vloc_psi     :   1802.12s CPU   1808.54s WALL (    5310 calls)
     add_vuspsi   :    353.57s CPU    353.72s WALL (    5310 calls)

     General routines
     calbec       :    344.97s CPU    345.10s WALL (    5562 calls)
     fft          :      1.50s CPU      1.59s WALL (     280 calls)
     ffts         :      0.10s CPU      0.10s WALL (      26 calls)
     fftw         :   1714.10s CPU   1719.97s WALL ( 1359072 calls)
 
     Parallel routines
 
     PWSCF        :      1h13m CPU      1h14m WALL

 
   This run was terminated on:  23:59: 4  28Mar2023            

=------------------------------------------------------------------------------=
   JOB DONE.
=------------------------------------------------------------------------------=
