
     Program PWSCF v.6.8 starts on 28Mar2023 at 20: 9:55 

     This program is part of the open-source Quantum ESPRESSO suite
     for quantum simulation of materials; please cite
         "P. Giannozzi et al., J. Phys.:Condens. Matter 21 395502 (2009);
         "P. Giannozzi et al., J. Phys.:Condens. Matter 29 465901 (2017);
         "P. Giannozzi et al., J. Chem. Phys. 152 154105 (2020);
          URL http://www.quantum-espresso.org", 
     in publications or presentations arising from this work. More details at
     http://www.quantum-espresso.org/quote

     Parallel version (MPI & OpenMP), running on       6 processor cores
     Number of MPI processes:                 6
     Threads/MPI process:                     1

     MPI processes distributed on     1 nodes
     R & G space division:  proc/nbgrp/npool/nimage =       6
     162756 MiB available memory on the printing compute node when the environment starts
 
     Waiting for input...
     Reading input from standard input

     Current dimensions of program PWSCF are:
     Max number of different atomic species (ntypx) = 10
     Max number of k-points (npk) =  40000
     Max angular momentum in pseudopotentials (lmaxx) =  4

     Subspace diagonalization in iterative solution of the eigenvalue problem:
     one sub-group per band group will be used
     scalapack distributed-memory algorithm (size of sub-group:  2*  2 procs)

 
     Parallelization info
     --------------------
     sticks:   dense  smooth     PW     G-vecs:    dense   smooth      PW
     Min        1023    1023    271               105132   105132   14277
     Max        1025    1025    272               105135   105135   14280
     Sum        6145    6145   1627               630803   630803   85669
 
     Using Slab Decomposition
 


     bravais-lattice index     =            0
     lattice parameter (alat)  =      12.1668  a.u.
     unit-cell volume          =    2540.8240 (a.u.)^3
     number of atoms/cell      =           32
     number of atomic types    =            2
     number of electrons       =       288.00
     number of Kohn-Sham states=          144
     kinetic-energy cutoff     =     150.0000  Ry
     charge density cutoff     =     600.0000  Ry
     scf convergence threshold =      1.0E-08
     mixing beta               =       0.7000
     number of iterations used =            8  plain     mixing
     Exchange-correlation= PBE
                           (   1   4   3   4   0   0   0)

     celldm(1)=  12.166840  celldm(2)=   0.000000  celldm(3)=   0.000000
     celldm(4)=   0.000000  celldm(5)=   0.000000  celldm(6)=   0.000000

     crystal axes: (cart. coord. in units of alat)
               a(1) = (   1.000000   0.000000   0.000000 )  
               a(2) = (  -0.500000   0.866025   0.000000 )  
               a(3) = (   0.000000   0.000000   1.628961 )  

     reciprocal axes: (cart. coord. in units 2 pi/alat)
               b(1) = (  1.000000  0.577350  0.000000 )  
               b(2) = (  0.000000  1.154701  0.000000 )  
               b(3) = (  0.000000  0.000000  0.613888 )  


     PseudoPot. # 1 for Ga read from file:
     ../pseudo/Ga_ONCV_PBE_sr.upf
     MD5 check sum: e3654b1fbeb096be7359f640ef9d98d7
     Pseudo is Norm-conserving + core correction, Zval = 13.0
     Generated using ONCVPSP code by D. R. Hamann
     Using radial grid of 1902 points,  6 beta functions with: 
                l(1) =   0
                l(2) =   0
                l(3) =   1
                l(4) =   1
                l(5) =   2
                l(6) =   2

     PseudoPot. # 2 for N  read from file:
     ../pseudo/N_ONCV_PBE_sr.upf
     MD5 check sum: 18c6af81dac9c5a2d6d52ed11cf7bfee
     Pseudo is Norm-conserving + core correction, Zval =  5.0
     Generated using ONCVPSP code by D. R. Hamann
     Using radial grid of 1058 points,  4 beta functions with: 
                l(1) =   0
                l(2) =   0
                l(3) =   1
                l(4) =   1

     atomic species   valence    mass     pseudopotential
        Ga            13.00    69.72300     Ga( 1.00)
        N              5.00    14.00670     N ( 1.00)

     No symmetry found


                                    s                        frac. trans.

      isym =  1     identity                                     

 cryst.   s( 1) = (     1          0          0      )
                  (     0          1          0      )
                  (     0          0          1      )

 cart.    s( 1) = (  1.0000000  0.0000000  0.0000000 )
                  (  0.0000000  1.0000000  0.0000000 )
                  (  0.0000000  0.0000000  1.0000000 )


   Cartesian axes

     site n.     atom                  positions (alat units)
         1           Ga  tau(   1) = (   0.2508600   0.1443376   0.4079252  )
         2           Ga  tau(   2) = (   0.7500000   0.1443376   0.4065243  )
         3           Ga  tau(   3) = (   0.0000000   0.5773503   0.4065243  )
         4           Ga  tau(   4) = (   0.5000000   0.5773503   0.4065243  )
         5           Ga  tau(   5) = (   0.2500000   0.1443376   1.2210046  )
         6           Ga  tau(   6) = (   0.7500000   0.1443376   1.2210046  )
         7           Ga  tau(   7) = (   0.0000000   0.5773503   1.2210046  )
         8           Ga  tau(   8) = (   0.5000000   0.5773503   1.2210046  )
         9           Ga  tau(   9) = (  -0.0000000   0.2886751   0.8137645  )
        10           Ga  tau(  10) = (   0.5000000   0.2886751   0.8137645  )
        11           Ga  tau(  11) = (  -0.2500000   0.7216878   0.8137645  )
        12           Ga  tau(  12) = (   0.2500000   0.7216878   0.8137645  )
        13           Ga  tau(  13) = (  -0.0000000   0.2886751   1.6282448  )
        14           Ga  tau(  14) = (   0.5000000   0.2886751   1.6282448  )
        15           Ga  tau(  15) = (  -0.2500000   0.7216878   1.6282448  )
        16           Ga  tau(  16) = (   0.2500000   0.7216878   1.6282448  )
        17           N   tau(  17) = (   0.2500000   0.1443376   0.7133862  )
        18           N   tau(  18) = (   0.7500000   0.1443376   0.7133862  )
        19           N   tau(  19) = (   0.0000000   0.5773503   0.7133862  )
        20           N   tau(  20) = (   0.5000000   0.5773503   0.7133862  )
        21           N   tau(  21) = (   0.2500000   0.1443376   1.5278665  )
        22           N   tau(  22) = (   0.7500000   0.1443376   1.5278665  )
        23           N   tau(  23) = (   0.0000000   0.5773503   1.5278665  )
        24           N   tau(  24) = (   0.5000000   0.5773503   1.5278665  )
        25           N   tau(  25) = (  -0.0000000   0.2886751   0.3061460  )
        26           N   tau(  26) = (   0.5000000   0.2886751   0.3061460  )
        27           N   tau(  27) = (  -0.2500000   0.7216878   0.3061460  )
        28           N   tau(  28) = (   0.2500000   0.7216878   0.3061460  )
        29           N   tau(  29) = (  -0.0000000   0.2886751   1.1206263  )
        30           N   tau(  30) = (   0.5000000   0.2886751   1.1206263  )
        31           N   tau(  31) = (  -0.2500000   0.7216878   1.1206263  )
        32           N   tau(  32) = (   0.2500000   0.7216878   1.1206263  )

   Crystallographic axes

     site n.     atom                  positions (cryst. coord.)
         1           Ga  tau(   1) = (  0.3341933  0.1666667  0.2504205  )
         2           Ga  tau(   2) = (  0.8333333  0.1666667  0.2495605  )
         3           Ga  tau(   3) = (  0.3333333  0.6666667  0.2495605  )
         4           Ga  tau(   4) = (  0.8333333  0.6666667  0.2495605  )
         5           Ga  tau(   5) = (  0.3333333  0.1666667  0.7495605  )
         6           Ga  tau(   6) = (  0.8333333  0.1666667  0.7495605  )
         7           Ga  tau(   7) = (  0.3333333  0.6666667  0.7495605  )
         8           Ga  tau(   8) = (  0.8333333  0.6666667  0.7495605  )
         9           Ga  tau(   9) = (  0.1666667  0.3333333  0.4995605  )
        10           Ga  tau(  10) = (  0.6666667  0.3333333  0.4995605  )
        11           Ga  tau(  11) = (  0.1666667  0.8333333  0.4995605  )
        12           Ga  tau(  12) = (  0.6666667  0.8333333  0.4995605  )
        13           Ga  tau(  13) = (  0.1666667  0.3333333  0.9995605  )
        14           Ga  tau(  14) = (  0.6666667  0.3333333  0.9995605  )
        15           Ga  tau(  15) = (  0.1666667  0.8333333  0.9995605  )
        16           Ga  tau(  16) = (  0.6666667  0.8333333  0.9995605  )
        17           N   tau(  17) = (  0.3333333  0.1666667  0.4379395  )
        18           N   tau(  18) = (  0.8333333  0.1666667  0.4379395  )
        19           N   tau(  19) = (  0.3333333  0.6666667  0.4379395  )
        20           N   tau(  20) = (  0.8333333  0.6666667  0.4379395  )
        21           N   tau(  21) = (  0.3333333  0.1666667  0.9379395  )
        22           N   tau(  22) = (  0.8333333  0.1666667  0.9379395  )
        23           N   tau(  23) = (  0.3333333  0.6666667  0.9379395  )
        24           N   tau(  24) = (  0.8333333  0.6666667  0.9379395  )
        25           N   tau(  25) = (  0.1666667  0.3333333  0.1879395  )
        26           N   tau(  26) = (  0.6666667  0.3333333  0.1879395  )
        27           N   tau(  27) = (  0.1666667  0.8333333  0.1879395  )
        28           N   tau(  28) = (  0.6666667  0.8333333  0.1879395  )
        29           N   tau(  29) = (  0.1666667  0.3333333  0.6879395  )
        30           N   tau(  30) = (  0.6666667  0.3333333  0.6879395  )
        31           N   tau(  31) = (  0.1666667  0.8333333  0.6879395  )
        32           N   tau(  32) = (  0.6666667  0.8333333  0.6879395  )

     number of k points=    63
                       cart. coord. in units 2pi/alat
        k(    1) = (   0.0000000   0.0000000   0.0000000), wk =   0.0160000
        k(    2) = (   0.0000000   0.0000000   0.1227777), wk =   0.0320000
        k(    3) = (   0.0000000   0.0000000   0.2455553), wk =   0.0320000
        k(    4) = (   0.0000000   0.2309401   0.0000000), wk =   0.0320000
        k(    5) = (   0.0000000   0.2309401   0.1227777), wk =   0.0320000
        k(    6) = (   0.0000000   0.2309401   0.2455553), wk =   0.0320000
        k(    7) = (   0.0000000   0.4618802   0.0000000), wk =   0.0320000
        k(    8) = (   0.0000000   0.4618802   0.1227777), wk =   0.0320000
        k(    9) = (   0.0000000   0.4618802   0.2455553), wk =   0.0320000
        k(   10) = (   0.2000000   0.3464102   0.0000000), wk =   0.0320000
        k(   11) = (   0.2000000   0.3464102   0.1227777), wk =   0.0320000
        k(   12) = (   0.2000000   0.3464102   0.2455553), wk =   0.0320000
        k(   13) = (   0.2000000   0.5773503   0.0000000), wk =   0.0320000
        k(   14) = (   0.2000000   0.5773503   0.1227777), wk =   0.0320000
        k(   15) = (   0.2000000   0.5773503   0.2455553), wk =   0.0320000
        k(   16) = (  -0.2000000   0.1154701   0.0000000), wk =   0.0320000
        k(   17) = (   0.2000000   0.1154701   0.0000000), wk =   0.0320000
        k(   18) = (   0.0000000  -0.2309401   0.1227777), wk =   0.0320000
        k(   19) = (  -0.2000000   0.1154701   0.1227777), wk =   0.0320000
        k(   20) = (   0.2000000   0.1154701   0.1227777), wk =   0.0320000
        k(   21) = (  -0.2000000  -0.1154701   0.1227777), wk =   0.0320000
        k(   22) = (   0.2000000  -0.1154701   0.1227777), wk =   0.0320000
        k(   23) = (   0.0000000  -0.2309401   0.2455553), wk =   0.0320000
        k(   24) = (  -0.2000000   0.1154701   0.2455553), wk =   0.0320000
        k(   25) = (   0.2000000   0.1154701   0.2455553), wk =   0.0320000
        k(   26) = (  -0.2000000  -0.1154701   0.2455553), wk =   0.0320000
        k(   27) = (   0.2000000  -0.1154701   0.2455553), wk =   0.0320000
        k(   28) = (  -0.4000000   0.2309401   0.0000000), wk =   0.0320000
        k(   29) = (   0.4000000   0.2309401   0.0000000), wk =   0.0320000
        k(   30) = (   0.0000000  -0.4618802   0.1227777), wk =   0.0320000
        k(   31) = (  -0.4000000   0.2309401   0.1227777), wk =   0.0320000
        k(   32) = (   0.4000000   0.2309401   0.1227777), wk =   0.0320000
        k(   33) = (  -0.4000000  -0.2309401   0.1227777), wk =   0.0320000
        k(   34) = (   0.4000000  -0.2309401   0.1227777), wk =   0.0320000
        k(   35) = (   0.0000000  -0.4618802   0.2455553), wk =   0.0320000
        k(   36) = (  -0.4000000   0.2309401   0.2455553), wk =   0.0320000
        k(   37) = (   0.4000000   0.2309401   0.2455553), wk =   0.0320000
        k(   38) = (  -0.4000000  -0.2309401   0.2455553), wk =   0.0320000
        k(   39) = (   0.4000000  -0.2309401   0.2455553), wk =   0.0320000
        k(   40) = (  -0.2000000   0.3464102   0.0000000), wk =   0.0320000
        k(   41) = (   0.4000000   0.0000000   0.0000000), wk =   0.0320000
        k(   42) = (  -0.2000000  -0.3464102   0.1227777), wk =   0.0320000
        k(   43) = (  -0.2000000   0.3464102  -0.1227777), wk =   0.0320000
        k(   44) = (   0.2000000  -0.3464102  -0.1227777), wk =   0.0320000
        k(   45) = (   0.4000000   0.0000000   0.1227777), wk =   0.0320000
        k(   46) = (  -0.4000000   0.0000000   0.1227777), wk =   0.0320000
        k(   47) = (  -0.2000000  -0.3464102   0.2455553), wk =   0.0320000
        k(   48) = (  -0.2000000   0.3464102  -0.2455553), wk =   0.0320000
        k(   49) = (   0.2000000  -0.3464102  -0.2455553), wk =   0.0320000
        k(   50) = (   0.4000000   0.0000000   0.2455553), wk =   0.0320000
        k(   51) = (  -0.4000000   0.0000000   0.2455553), wk =   0.0320000
        k(   52) = (  -0.4000000   0.4618802   0.0000000), wk =   0.0320000
        k(   53) = (   0.6000000   0.1154701   0.0000000), wk =   0.0320000
        k(   54) = (  -0.2000000  -0.5773503   0.1227777), wk =   0.0320000
        k(   55) = (  -0.4000000   0.4618802   0.1227777), wk =   0.0320000
        k(   56) = (   0.6000000   0.1154701   0.1227777), wk =   0.0320000
        k(   57) = (  -0.6000000  -0.1154701   0.1227777), wk =   0.0320000
        k(   58) = (   0.4000000  -0.4618802   0.1227777), wk =   0.0320000
        k(   59) = (  -0.2000000  -0.5773503   0.2455553), wk =   0.0320000
        k(   60) = (  -0.4000000   0.4618802   0.2455553), wk =   0.0320000
        k(   61) = (   0.6000000   0.1154701   0.2455553), wk =   0.0320000
        k(   62) = (  -0.6000000  -0.1154701   0.2455553), wk =   0.0320000
        k(   63) = (   0.4000000  -0.4618802   0.2455553), wk =   0.0320000

                       cryst. coord.
        k(    1) = (   0.0000000   0.0000000   0.0000000), wk =   0.0160000
        k(    2) = (   0.0000000   0.0000000   0.2000000), wk =   0.0320000
        k(    3) = (   0.0000000   0.0000000   0.4000000), wk =   0.0320000
        k(    4) = (   0.0000000   0.2000000   0.0000000), wk =   0.0320000
        k(    5) = (   0.0000000   0.2000000   0.2000000), wk =   0.0320000
        k(    6) = (   0.0000000   0.2000000   0.4000000), wk =   0.0320000
        k(    7) = (   0.0000000   0.4000000   0.0000000), wk =   0.0320000
        k(    8) = (   0.0000000   0.4000000   0.2000000), wk =   0.0320000
        k(    9) = (   0.0000000   0.4000000   0.4000000), wk =   0.0320000
        k(   10) = (   0.2000000   0.2000000   0.0000000), wk =   0.0320000
        k(   11) = (   0.2000000   0.2000000   0.2000000), wk =   0.0320000
        k(   12) = (   0.2000000   0.2000000   0.4000000), wk =   0.0320000
        k(   13) = (   0.2000000   0.4000000   0.0000000), wk =   0.0320000
        k(   14) = (   0.2000000   0.4000000   0.2000000), wk =   0.0320000
        k(   15) = (   0.2000000   0.4000000   0.4000000), wk =   0.0320000
        k(   16) = (  -0.2000000   0.2000000   0.0000000), wk =   0.0320000
        k(   17) = (   0.2000000   0.0000000   0.0000000), wk =   0.0320000
        k(   18) = (   0.0000000  -0.2000000   0.2000000), wk =   0.0320000
        k(   19) = (  -0.2000000   0.2000000   0.2000000), wk =   0.0320000
        k(   20) = (   0.2000000   0.0000000   0.2000000), wk =   0.0320000
        k(   21) = (  -0.2000000   0.0000000   0.2000000), wk =   0.0320000
        k(   22) = (   0.2000000  -0.2000000   0.2000000), wk =   0.0320000
        k(   23) = (   0.0000000  -0.2000000   0.4000000), wk =   0.0320000
        k(   24) = (  -0.2000000   0.2000000   0.4000000), wk =   0.0320000
        k(   25) = (   0.2000000   0.0000000   0.4000000), wk =   0.0320000
        k(   26) = (  -0.2000000   0.0000000   0.4000000), wk =   0.0320000
        k(   27) = (   0.2000000  -0.2000000   0.4000000), wk =   0.0320000
        k(   28) = (  -0.4000000   0.4000000   0.0000000), wk =   0.0320000
        k(   29) = (   0.4000000   0.0000000   0.0000000), wk =   0.0320000
        k(   30) = (   0.0000000  -0.4000000   0.2000000), wk =   0.0320000
        k(   31) = (  -0.4000000   0.4000000   0.2000000), wk =   0.0320000
        k(   32) = (   0.4000000   0.0000000   0.2000000), wk =   0.0320000
        k(   33) = (  -0.4000000   0.0000000   0.2000000), wk =   0.0320000
        k(   34) = (   0.4000000  -0.4000000   0.2000000), wk =   0.0320000
        k(   35) = (   0.0000000  -0.4000000   0.4000000), wk =   0.0320000
        k(   36) = (  -0.4000000   0.4000000   0.4000000), wk =   0.0320000
        k(   37) = (   0.4000000   0.0000000   0.4000000), wk =   0.0320000
        k(   38) = (  -0.4000000   0.0000000   0.4000000), wk =   0.0320000
        k(   39) = (   0.4000000  -0.4000000   0.4000000), wk =   0.0320000
        k(   40) = (  -0.2000000   0.4000000   0.0000000), wk =   0.0320000
        k(   41) = (   0.4000000  -0.2000000   0.0000000), wk =   0.0320000
        k(   42) = (  -0.2000000  -0.2000000   0.2000000), wk =   0.0320000
        k(   43) = (  -0.2000000   0.4000000  -0.2000000), wk =   0.0320000
        k(   44) = (   0.2000000  -0.4000000  -0.2000000), wk =   0.0320000
        k(   45) = (   0.4000000  -0.2000000   0.2000000), wk =   0.0320000
        k(   46) = (  -0.4000000   0.2000000   0.2000000), wk =   0.0320000
        k(   47) = (  -0.2000000  -0.2000000   0.4000000), wk =   0.0320000
        k(   48) = (  -0.2000000   0.4000000  -0.4000000), wk =   0.0320000
        k(   49) = (   0.2000000  -0.4000000  -0.4000000), wk =   0.0320000
        k(   50) = (   0.4000000  -0.2000000   0.4000000), wk =   0.0320000
        k(   51) = (  -0.4000000   0.2000000   0.4000000), wk =   0.0320000
        k(   52) = (  -0.4000000   0.6000000   0.0000000), wk =   0.0320000
        k(   53) = (   0.6000000  -0.2000000   0.0000000), wk =   0.0320000
        k(   54) = (  -0.2000000  -0.4000000   0.2000000), wk =   0.0320000
        k(   55) = (  -0.4000000   0.6000000   0.2000000), wk =   0.0320000
        k(   56) = (   0.6000000  -0.2000000   0.2000000), wk =   0.0320000
        k(   57) = (  -0.6000000   0.2000000   0.2000000), wk =   0.0320000
        k(   58) = (   0.4000000  -0.6000000   0.2000000), wk =   0.0320000
        k(   59) = (  -0.2000000  -0.4000000   0.4000000), wk =   0.0320000
        k(   60) = (  -0.4000000   0.6000000   0.4000000), wk =   0.0320000
        k(   61) = (   0.6000000  -0.2000000   0.4000000), wk =   0.0320000
        k(   62) = (  -0.6000000   0.2000000   0.4000000), wk =   0.0320000
        k(   63) = (   0.4000000  -0.6000000   0.4000000), wk =   0.0320000

     Dense  grid:   630803 G-vectors     FFT dimensions: (  96,  96, 160)

     Dynamical RAM for                 wfc:      28.87 MB

     Dynamical RAM for     wfc (w. buffer):    1847.39 MB

     Dynamical RAM for           str. fact:       3.21 MB

     Dynamical RAM for           local pot:       0.00 MB

     Dynamical RAM for          nlocal pot:      83.39 MB

     Dynamical RAM for                qrad:       3.93 MB

     Dynamical RAM for          rho,v,vnew:      10.51 MB

     Dynamical RAM for               rhoin:       3.50 MB

     Dynamical RAM for            rho*nmix:      25.67 MB

     Dynamical RAM for           G-vectors:       6.82 MB

     Dynamical RAM for          h,s,v(r/c):       0.95 MB

     Dynamical RAM for          <psi|beta>:       0.91 MB

     Dynamical RAM for                 psi:      57.73 MB

     Dynamical RAM for                hpsi:      57.73 MB

     Dynamical RAM for      wfcinit/wfcrot:      84.38 MB

     Estimated static dynamical RAM per process >       1.93 GB

     Estimated max dynamical RAM per process >       2.07 GB

     Estimated total dynamical RAM >      12.40 GB

     Initial potential from superposition of free atoms

     starting charge  287.95708, renormalised to  288.00000
     Starting wfcs are  208 randomized atomic wfcs

     total cpu time spent up to now is       80.4 secs

     Self-consistent Calculation

     iteration #  1     ecut=   150.00 Ry     beta= 0.70
     Davidson diagonalization with overlap

---- Real-time Memory Report at c_bands before calling an iterative solver
          2233 MiB given to the printing process from OS
             0 MiB allocation reported by mallinfo(arena+hblkhd)
        149941 MiB available memory on the node where the printing process lives
------------------
     ethr =  1.00E-02,  avg # of iterations =  2.0

     total cpu time spent up to now is      263.1 secs

     total energy              =   -2776.29199946 Ry
     estimated scf accuracy    <       8.27629082 Ry

     iteration #  2     ecut=   150.00 Ry     beta= 0.70
     Davidson diagonalization with overlap

---- Real-time Memory Report at c_bands before calling an iterative solver
          2300 MiB given to the printing process from OS
             0 MiB allocation reported by mallinfo(arena+hblkhd)
        150215 MiB available memory on the node where the printing process lives
------------------
     ethr =  2.87E-03,  avg # of iterations =  3.0

     total cpu time spent up to now is      458.9 secs

     total energy              =   -2779.02740223 Ry
     estimated scf accuracy    <       7.32225566 Ry

     iteration #  3     ecut=   150.00 Ry     beta= 0.70
     Davidson diagonalization with overlap

---- Real-time Memory Report at c_bands before calling an iterative solver
          2320 MiB given to the printing process from OS
             0 MiB allocation reported by mallinfo(arena+hblkhd)
        150152 MiB available memory on the node where the printing process lives
------------------
     ethr =  2.54E-03,  avg # of iterations =  2.0

     negative rho (up, down):  4.652E-06 0.000E+00

     total cpu time spent up to now is      632.9 secs

     total energy              =   -2779.90155775 Ry
     estimated scf accuracy    <       0.24672549 Ry

     iteration #  4     ecut=   150.00 Ry     beta= 0.70
     Davidson diagonalization with overlap

---- Real-time Memory Report at c_bands before calling an iterative solver
          2324 MiB given to the printing process from OS
             0 MiB allocation reported by mallinfo(arena+hblkhd)
        150115 MiB available memory on the node where the printing process lives
------------------
     ethr =  8.57E-05,  avg # of iterations =  5.2

     negative rho (up, down):  7.894E-07 0.000E+00

     total cpu time spent up to now is      900.4 secs

     total energy              =   -2780.15184948 Ry
     estimated scf accuracy    <       0.79864001 Ry

     iteration #  5     ecut=   150.00 Ry     beta= 0.70
     Davidson diagonalization with overlap

---- Real-time Memory Report at c_bands before calling an iterative solver
          2354 MiB given to the printing process from OS
             0 MiB allocation reported by mallinfo(arena+hblkhd)
        149940 MiB available memory on the node where the printing process lives
------------------
     ethr =  8.57E-05,  avg # of iterations =  2.9

     negative rho (up, down):  4.829E-07 0.000E+00

     total cpu time spent up to now is     1079.6 secs

     total energy              =   -2780.18250140 Ry
     estimated scf accuracy    <       0.18505774 Ry

     iteration #  6     ecut=   150.00 Ry     beta= 0.70
     Davidson diagonalization with overlap

---- Real-time Memory Report at c_bands before calling an iterative solver
          2358 MiB given to the printing process from OS
             0 MiB allocation reported by mallinfo(arena+hblkhd)
        149899 MiB available memory on the node where the printing process lives
------------------
     ethr =  6.43E-05,  avg # of iterations =  1.0

     negative rho (up, down):  3.730E-07 0.000E+00

     total cpu time spent up to now is     1216.6 secs

     total energy              =   -2780.18296214 Ry
     estimated scf accuracy    <       0.11907679 Ry

     iteration #  7     ecut=   150.00 Ry     beta= 0.70
     Davidson diagonalization with overlap

---- Real-time Memory Report at c_bands before calling an iterative solver
          2362 MiB given to the printing process from OS
             0 MiB allocation reported by mallinfo(arena+hblkhd)
        149866 MiB available memory on the node where the printing process lives
------------------
     ethr =  4.13E-05,  avg # of iterations =  1.0

     negative rho (up, down):  3.718E-07 0.000E+00

     total cpu time spent up to now is     1353.7 secs

     total energy              =   -2780.18492569 Ry
     estimated scf accuracy    <       0.10734430 Ry

     iteration #  8     ecut=   150.00 Ry     beta= 0.70
     Davidson diagonalization with overlap

---- Real-time Memory Report at c_bands before calling an iterative solver
          2365 MiB given to the printing process from OS
             0 MiB allocation reported by mallinfo(arena+hblkhd)
        149843 MiB available memory on the node where the printing process lives
------------------
     ethr =  3.73E-05,  avg # of iterations =  1.0

     total cpu time spent up to now is     1490.6 secs

     total energy              =   -2780.18887256 Ry
     estimated scf accuracy    <       0.09696169 Ry

     iteration #  9     ecut=   150.00 Ry     beta= 0.70
     Davidson diagonalization with overlap

---- Real-time Memory Report at c_bands before calling an iterative solver
          2368 MiB given to the printing process from OS
             0 MiB allocation reported by mallinfo(arena+hblkhd)
        149830 MiB available memory on the node where the printing process lives
------------------
     ethr =  3.37E-05,  avg # of iterations =  1.0

     total cpu time spent up to now is     1627.7 secs

     total energy              =   -2780.19558417 Ry
     estimated scf accuracy    <       0.10153210 Ry

     iteration # 10     ecut=   150.00 Ry     beta= 0.70
     Davidson diagonalization with overlap

---- Real-time Memory Report at c_bands before calling an iterative solver
          2368 MiB given to the printing process from OS
             0 MiB allocation reported by mallinfo(arena+hblkhd)
        149804 MiB available memory on the node where the printing process lives
------------------
     ethr =  3.37E-05,  avg # of iterations =  1.0

     total cpu time spent up to now is     1764.6 secs

     total energy              =   -2780.18602746 Ry
     estimated scf accuracy    <       0.11780186 Ry

     iteration # 11     ecut=   150.00 Ry     beta= 0.70
     Davidson diagonalization with overlap

---- Real-time Memory Report at c_bands before calling an iterative solver
          2371 MiB given to the printing process from OS
             0 MiB allocation reported by mallinfo(arena+hblkhd)
        149816 MiB available memory on the node where the printing process lives
------------------
     ethr =  3.37E-05,  avg # of iterations =  1.0

     total cpu time spent up to now is     1901.7 secs

     total energy              =   -2780.18575880 Ry
     estimated scf accuracy    <       0.08964835 Ry

     iteration # 12     ecut=   150.00 Ry     beta= 0.70
     Davidson diagonalization with overlap

---- Real-time Memory Report at c_bands before calling an iterative solver
          2371 MiB given to the printing process from OS
             0 MiB allocation reported by mallinfo(arena+hblkhd)
        149816 MiB available memory on the node where the printing process lives
------------------
     ethr =  3.11E-05,  avg # of iterations =  1.0

     total cpu time spent up to now is     2038.6 secs

     total energy              =   -2780.18550858 Ry
     estimated scf accuracy    <       0.08692511 Ry

     iteration # 13     ecut=   150.00 Ry     beta= 0.70
     Davidson diagonalization with overlap

---- Real-time Memory Report at c_bands before calling an iterative solver
          2371 MiB given to the printing process from OS
             0 MiB allocation reported by mallinfo(arena+hblkhd)
        149817 MiB available memory on the node where the printing process lives
------------------
     ethr =  3.02E-05,  avg # of iterations =  1.0

     total cpu time spent up to now is     2175.7 secs

     total energy              =   -2780.18603190 Ry
     estimated scf accuracy    <       0.08399991 Ry

     iteration # 14     ecut=   150.00 Ry     beta= 0.70
     Davidson diagonalization with overlap

---- Real-time Memory Report at c_bands before calling an iterative solver
          2371 MiB given to the printing process from OS
             0 MiB allocation reported by mallinfo(arena+hblkhd)
        149805 MiB available memory on the node where the printing process lives
------------------
     ethr =  2.92E-05,  avg # of iterations =  1.0

     total cpu time spent up to now is     2312.5 secs

     total energy              =   -2780.18726059 Ry
     estimated scf accuracy    <       0.08416488 Ry

     iteration # 15     ecut=   150.00 Ry     beta= 0.70
     Davidson diagonalization with overlap

---- Real-time Memory Report at c_bands before calling an iterative solver
          2371 MiB given to the printing process from OS
             0 MiB allocation reported by mallinfo(arena+hblkhd)
        149799 MiB available memory on the node where the printing process lives
------------------
     ethr =  2.92E-05,  avg # of iterations =  1.0

     total cpu time spent up to now is     2449.5 secs

     total energy              =   -2780.20755125 Ry
     estimated scf accuracy    <       0.08689048 Ry

     iteration # 16     ecut=   150.00 Ry     beta= 0.70
     Davidson diagonalization with overlap

---- Real-time Memory Report at c_bands before calling an iterative solver
          2371 MiB given to the printing process from OS
             0 MiB allocation reported by mallinfo(arena+hblkhd)
        149783 MiB available memory on the node where the printing process lives
------------------
     ethr =  2.92E-05,  avg # of iterations =  1.0

     total cpu time spent up to now is     2586.4 secs

     total energy              =   -2780.11683643 Ry
     estimated scf accuracy    <       0.15269276 Ry

     iteration # 17     ecut=   150.00 Ry     beta= 0.70
     Davidson diagonalization with overlap

---- Real-time Memory Report at c_bands before calling an iterative solver
          2371 MiB given to the printing process from OS
             0 MiB allocation reported by mallinfo(arena+hblkhd)
        149761 MiB available memory on the node where the printing process lives
------------------
     ethr =  2.92E-05,  avg # of iterations =  4.0

     total cpu time spent up to now is     2806.6 secs

     total energy              =   -2780.16100180 Ry
     estimated scf accuracy    <       0.01560633 Ry

     iteration # 18     ecut=   150.00 Ry     beta= 0.70
     Davidson diagonalization with overlap

---- Real-time Memory Report at c_bands before calling an iterative solver
          2371 MiB given to the printing process from OS
             0 MiB allocation reported by mallinfo(arena+hblkhd)
        149679 MiB available memory on the node where the printing process lives
------------------
     ethr =  5.42E-06,  avg # of iterations =  2.0

     total cpu time spent up to now is     2972.9 secs

     total energy              =   -2780.16152185 Ry
     estimated scf accuracy    <       0.00233669 Ry

     iteration # 19     ecut=   150.00 Ry     beta= 0.70
     Davidson diagonalization with overlap

---- Real-time Memory Report at c_bands before calling an iterative solver
          2371 MiB given to the printing process from OS
             0 MiB allocation reported by mallinfo(arena+hblkhd)
        149663 MiB available memory on the node where the printing process lives
------------------
     ethr =  8.11E-07,  avg # of iterations =  4.1

     total cpu time spent up to now is     3181.0 secs

     total energy              =   -2780.16208469 Ry
     estimated scf accuracy    <       0.00009028 Ry

     iteration # 20     ecut=   150.00 Ry     beta= 0.70
     Davidson diagonalization with overlap

---- Real-time Memory Report at c_bands before calling an iterative solver
          2382 MiB given to the printing process from OS
             0 MiB allocation reported by mallinfo(arena+hblkhd)
        149550 MiB available memory on the node where the printing process lives
------------------
     ethr =  3.13E-08,  avg # of iterations =  3.0

     total cpu time spent up to now is     3344.1 secs

     total energy              =   -2780.16208950 Ry
     estimated scf accuracy    <       0.00005510 Ry

     iteration # 21     ecut=   150.00 Ry     beta= 0.70
     Davidson diagonalization with overlap

---- Real-time Memory Report at c_bands before calling an iterative solver
          2382 MiB given to the printing process from OS
             0 MiB allocation reported by mallinfo(arena+hblkhd)
        149513 MiB available memory on the node where the printing process lives
------------------
     ethr =  1.91E-08,  avg # of iterations =  1.0

     total cpu time spent up to now is     3481.0 secs

     total energy              =   -2780.16207750 Ry
     estimated scf accuracy    <       0.00004796 Ry

     iteration # 22     ecut=   150.00 Ry     beta= 0.70
     Davidson diagonalization with overlap

---- Real-time Memory Report at c_bands before calling an iterative solver
          2382 MiB given to the printing process from OS
             0 MiB allocation reported by mallinfo(arena+hblkhd)
        149501 MiB available memory on the node where the printing process lives
------------------
     ethr =  1.67E-08,  avg # of iterations =  2.9

     total cpu time spent up to now is     3642.8 secs

     total energy              =   -2780.16207689 Ry
     estimated scf accuracy    <       0.00001051 Ry

     iteration # 23     ecut=   150.00 Ry     beta= 0.70
     Davidson diagonalization with overlap

---- Real-time Memory Report at c_bands before calling an iterative solver
          2382 MiB given to the printing process from OS
             0 MiB allocation reported by mallinfo(arena+hblkhd)
        149475 MiB available memory on the node where the printing process lives
------------------
     ethr =  3.65E-09,  avg # of iterations =  6.0

     total cpu time spent up to now is     3889.7 secs

     total energy              =   -2780.16207624 Ry
     estimated scf accuracy    <       0.00001711 Ry

     iteration # 24     ecut=   150.00 Ry     beta= 0.70
     Davidson diagonalization with overlap

---- Real-time Memory Report at c_bands before calling an iterative solver
          2383 MiB given to the printing process from OS
             0 MiB allocation reported by mallinfo(arena+hblkhd)
        149397 MiB available memory on the node where the printing process lives
------------------
     ethr =  3.65E-09,  avg # of iterations =  4.9

     total cpu time spent up to now is     4092.1 secs

     total energy              =   -2780.16207979 Ry
     estimated scf accuracy    <       0.00000276 Ry

     iteration # 25     ecut=   150.00 Ry     beta= 0.70
     Davidson diagonalization with overlap

---- Real-time Memory Report at c_bands before calling an iterative solver
          2392 MiB given to the printing process from OS
             0 MiB allocation reported by mallinfo(arena+hblkhd)
        149291 MiB available memory on the node where the printing process lives
------------------
     ethr =  9.58E-10,  avg # of iterations =  2.0

     total cpu time spent up to now is     4253.0 secs

     total energy              =   -2780.16207973 Ry
     estimated scf accuracy    <       0.00000075 Ry

     iteration # 26     ecut=   150.00 Ry     beta= 0.70
     Davidson diagonalization with overlap

---- Real-time Memory Report at c_bands before calling an iterative solver
          2392 MiB given to the printing process from OS
             0 MiB allocation reported by mallinfo(arena+hblkhd)
        149276 MiB available memory on the node where the printing process lives
------------------
     ethr =  2.60E-10,  avg # of iterations =  2.8

     total cpu time spent up to now is     4425.9 secs

     total energy              =   -2780.16207983 Ry
     estimated scf accuracy    <       0.00000006 Ry

     iteration # 27     ecut=   150.00 Ry     beta= 0.70
     Davidson diagonalization with overlap

---- Real-time Memory Report at c_bands before calling an iterative solver
          2392 MiB given to the printing process from OS
             0 MiB allocation reported by mallinfo(arena+hblkhd)
        149244 MiB available memory on the node where the printing process lives
------------------
     ethr =  2.13E-11,  avg # of iterations =  4.2

     total cpu time spent up to now is     4642.6 secs

     End of self-consistent calculation

          k = 0.0000 0.0000 0.0000 ( 78839 PWs)   bands (ev):

    -5.5373  -5.0454  -5.0369  -4.7864  -4.7813  -4.7787  -4.7730  -4.6780
    -4.6694  -4.6688  -4.6681  -4.6653  -4.6622  -4.6474  -4.6453  -4.6402
    -3.3722  -3.3639  -3.3637  -3.3462  -3.3462  -3.3431  -3.3428  -3.3226
    -3.3216  -3.3214  -3.3173  -3.3169  -3.3167  -3.3140  -3.3134  -3.3126
    -3.3090  -3.3088  -3.2965  -3.2962  -3.2961  -3.2108  -3.2105  -3.2102
    -3.2081  -3.2076  -3.2075  -3.2073  -3.2069  -3.2065  -3.1753  -3.1753
    -3.1752  -3.1427  -3.1426  -3.1332  -3.1331  -3.1329  -3.1230  -3.1228
    -3.1226  -3.1087  -3.1084  -3.1080  -3.1072  -3.1067  -3.1066  -3.0907
    -3.0906  -3.0879  -3.0878  -3.0657  -3.0644  -3.0642  -3.0560  -3.0557
    -3.0553  -3.0538  -3.0532  -3.0527  -3.0518  -3.0518  -3.0303  -3.0302
    -3.0301  -2.9902  -2.9871  -1.8559  -1.8554  -1.8550  -1.7513  -1.6217
    -1.6197  -1.6189  -1.6184  -1.6168  -1.6154  -1.3020  -1.3006  -1.2999
     3.3230   3.7369   3.7384   3.7411   3.7416   3.7447   3.7486   3.8704
     3.8721   3.8763   4.9922   4.9934   4.9964   6.1097   6.1139   6.1164
     6.3817   6.3868   7.5390   7.5406   7.5410   8.0578   8.0611   8.0632
     8.3015   8.3016   8.3042   8.3088   8.3095   8.3130   8.3358   8.3424
     8.3444   8.3458   8.3462   8.3492   9.1740   9.1755   9.2098   9.2103
     9.2121   9.6547   9.6548   9.6606   9.6638  10.1311  10.1667  10.1679

     occupation numbers 
     1.0000   1.0000   1.0000   1.0000   1.0000   1.0000   1.0000   1.0000
     1.0000   1.0000   1.0000   1.0000   1.0000   1.0000   1.0000   1.0000
     1.0000   1.0000   1.0000   1.0000   1.0000   1.0000   1.0000   1.0000
     1.0000   1.0000   1.0000   1.0000   1.0000   1.0000   1.0000   1.0000
     1.0000   1.0000   1.0000   1.0000   1.0000   1.0000   1.0000   1.0000
     1.0000   1.0000   1.0000   1.0000   1.0000   1.0000   1.0000   1.0000
     1.0000   1.0000   1.0000   1.0000   1.0000   1.0000   1.0000   1.0000
     1.0000   1.0000   1.0000   1.0000   1.0000   1.0000   1.0000   1.0000
     1.0000   1.0000   1.0000   1.0000   1.0000   1.0000   1.0000   1.0000
     1.0000   1.0000   1.0000   1.0000   1.0000   1.0000   1.0000   1.0000
     1.0000   1.0000   1.0000   1.0000   1.0000   1.0000   1.0000   1.0000
     1.0000   1.0000   1.0000   1.0000   1.0000   1.0000   1.0000   1.0000
     1.0000   1.0000   1.0000   1.0000   1.0000   1.0000   1.0000   1.0000
     1.0000   1.0000   1.0000   1.0000   1.0000   1.0000   1.0000   1.0000
     1.0000   1.0000   1.0000   1.0000   1.0000   1.0000   1.0000   1.0000
     1.0000   1.0000   1.0000   1.0000   1.0000   1.0000   1.0000   1.0000
     1.0000   1.0000   1.0000   1.0000   1.0000   1.0000   1.0000   1.0000
     1.0000   1.0000   1.0000   1.0000   1.0000   1.0000   1.0000   1.0000

          k = 0.0000 0.0000 0.1228 ( 78809 PWs)   bands (ev):

    -5.5101  -5.1759  -4.9305  -4.7835  -4.7770  -4.7729  -4.7705  -4.6971
    -4.6927  -4.6903  -4.6573  -4.6525  -4.6517  -4.6456  -4.6434  -4.6380
    -3.3638  -3.3636  -3.3634  -3.3519  -3.3517  -3.3356  -3.3355  -3.3293
    -3.3288  -3.3287  -3.3194  -3.3192  -3.3190  -3.3111  -3.3110  -3.2963
    -3.2961  -3.2959  -3.2922  -3.2920  -3.2918  -3.2357  -3.2354  -3.2353
    -3.2013  -3.2013  -3.2012  -3.1948  -3.1947  -3.1946  -3.1830  -3.1829
    -3.1827  -3.1631  -3.1398  -3.1396  -3.1360  -3.1359  -3.1358  -3.1321
    -3.1320  -3.1319  -3.1093  -3.1092  -3.1090  -3.1037  -3.1037  -3.0917
    -3.0915  -3.0915  -3.0764  -3.0764  -3.0657  -3.0644  -3.0642  -3.0572
    -3.0569  -3.0567  -3.0534  -3.0534  -3.0505  -3.0502  -3.0501  -3.0324
    -3.0323  -3.0321  -2.7403  -1.8528  -1.8466  -1.8461  -1.8456  -1.7029
    -1.7023  -1.7016  -1.5271  -1.5261  -1.5253  -1.3182  -1.3168  -1.3161
     3.4993   3.6133   3.6143   3.6177   3.8051   3.8066   3.8104   3.9681
     3.9692   3.9724   4.8777   4.8790   4.8819   5.4964   6.2807   6.2846
     6.2869   7.2951   7.5743   7.5758   7.5762   7.8533   7.8573   7.8591
     8.0571   8.0584   8.0590   8.1746   8.1776   8.1797   8.5667   8.5676
     8.5685   8.6250   8.6290   8.6309   9.1609   9.1615   9.1625   9.1971
     9.1995   9.5055   9.5073   9.7777   9.8123   9.8138  10.1412  10.1425

     occupation numbers 
     1.0000   1.0000   1.0000   1.0000   1.0000   1.0000   1.0000   1.0000
     1.0000   1.0000   1.0000   1.0000   1.0000   1.0000   1.0000   1.0000
     1.0000   1.0000   1.0000   1.0000   1.0000   1.0000   1.0000   1.0000
     1.0000   1.0000   1.0000   1.0000   1.0000   1.0000   1.0000   1.0000
     1.0000   1.0000   1.0000   1.0000   1.0000   1.0000   1.0000   1.0000
     1.0000   1.0000   1.0000   1.0000   1.0000   1.0000   1.0000   1.0000
     1.0000   1.0000   1.0000   1.0000   1.0000   1.0000   1.0000   1.0000
     1.0000   1.0000   1.0000   1.0000   1.0000   1.0000   1.0000   1.0000
     1.0000   1.0000   1.0000   1.0000   1.0000   1.0000   1.0000   1.0000
     1.0000   1.0000   1.0000   1.0000   1.0000   1.0000   1.0000   1.0000
     1.0000   1.0000   1.0000   1.0000   1.0000   1.0000   1.0000   1.0000
     1.0000   1.0000   1.0000   1.0000   1.0000   1.0000   1.0000   1.0000
     1.0000   1.0000   1.0000   1.0000   1.0000   1.0000   1.0000   1.0000
     1.0000   1.0000   1.0000   1.0000   1.0000   1.0000   1.0000   1.0000
     1.0000   1.0000   1.0000   1.0000   1.0000   1.0000   1.0000   1.0000
     1.0000   1.0000   1.0000   1.0000   1.0000   1.0000   1.0000   1.0000
     1.0000   1.0000   1.0000   1.0000   1.0000   1.0000   1.0000   1.0000
     1.0000   1.0000   1.0000   1.0000   1.0000   1.0000   1.0000   1.0000

          k = 0.0000 0.0000 0.2456 ( 78828 PWs)   bands (ev):

    -5.4320  -5.3139  -4.8534  -4.8055  -4.7582  -4.7524  -4.7504  -4.7258
    -4.7226  -4.7196  -4.6527  -4.6469  -4.6468  -4.6426  -4.6401  -4.6347
    -3.3634  -3.3632  -3.3560  -3.3558  -3.3343  -3.3309  -3.3307  -3.3305
    -3.3268  -3.3267  -3.3242  -3.3239  -3.3236  -3.3164  -3.3162  -3.2801
    -3.2800  -3.2798  -3.2720  -3.2663  -3.2662  -3.2660  -3.2598  -3.2593
    -3.2592  -3.2304  -3.2303  -3.2302  -3.1837  -3.1837  -3.1835  -3.1616
    -3.1613  -3.1612  -3.1586  -3.1586  -3.1585  -3.1448  -3.1445  -3.1445
    -3.1316  -3.1315  -3.1176  -3.1175  -3.0932  -3.0931  -3.0930  -3.0864
    -3.0862  -3.0861  -3.0667  -3.0666  -3.0657  -3.0643  -3.0642  -3.0581
    -3.0581  -3.0576  -3.0571  -3.0570  -3.0455  -3.0454  -3.0452  -3.0373
    -3.0372  -3.0368  -2.4323  -2.1104  -1.8185  -1.8180  -1.8175  -1.7701
    -1.7696  -1.7690  -1.4384  -1.4371  -1.4364  -1.3651  -1.3639  -1.3631
     3.5973   3.5984   3.6018   3.6797   3.6810   3.6846   3.9818   4.2699
     4.2710   4.2741   4.5996   4.6008   4.6038   4.6756   6.7141   6.7178
     6.7199   7.2758   7.2794   7.2814   7.6776   7.6791   7.6795   7.8426
     7.8439   7.8446   8.1944   8.4306   8.4342   8.4362   8.6369   8.6406
     8.6427   8.8151   8.8159   8.8168   9.0225   9.0231   9.0244   9.0465
     9.2643   9.2662   9.3705   9.3725   9.9537   9.9550  10.0677  10.0691

     occupation numbers 
     1.0000   1.0000   1.0000   1.0000   1.0000   1.0000   1.0000   1.0000
     1.0000   1.0000   1.0000   1.0000   1.0000   1.0000   1.0000   1.0000
     1.0000   1.0000   1.0000   1.0000   1.0000   1.0000   1.0000   1.0000
     1.0000   1.0000   1.0000   1.0000   1.0000   1.0000   1.0000   1.0000
     1.0000   1.0000   1.0000   1.0000   1.0000   1.0000   1.0000   1.0000
     1.0000   1.0000   1.0000   1.0000   1.0000   1.0000   1.0000   1.0000
     1.0000   1.0000   1.0000   1.0000   1.0000   1.0000   1.0000   1.0000
     1.0000   1.0000   1.0000   1.0000   1.0000   1.0000   1.0000   1.0000
     1.0000   1.0000   1.0000   1.0000   1.0000   1.0000   1.0000   1.0000
     1.0000   1.0000   1.0000   1.0000   1.0000   1.0000   1.0000   1.0000
     1.0000   1.0000   1.0000   1.0000   1.0000   1.0000   1.0000   1.0000
     1.0000   1.0000   1.0000   1.0000   1.0000   1.0000   1.0000   1.0000
     1.0000   1.0000   1.0000   1.0000   1.0000   1.0000   1.0000   1.0000
     1.0000   1.0000   1.0000   1.0000   1.0000   1.0000   1.0000   1.0000
     1.0000   1.0000   1.0000   1.0000   1.0000   1.0000   1.0000   1.0000
     1.0000   1.0000   1.0000   1.0000   1.0000   1.0000   1.0000   1.0000
     1.0000   1.0000   1.0000   1.0000   1.0000   1.0000   1.0000   1.0000
     1.0000   1.0000   1.0000   1.0000   1.0000   1.0000   1.0000   1.0000

          k = 0.0000 0.2309 0.0000 ( 78863 PWs)   bands (ev):

    -5.4481  -4.9927  -4.9843  -4.8275  -4.7781  -4.7741  -4.7539  -4.6912
    -4.6841  -4.6717  -4.6663  -4.6628  -4.6621  -4.6516  -4.6466  -4.6428
    -3.3632  -3.3507  -3.3381  -3.3342  -3.3303  -3.3271  -3.3258  -3.3240
    -3.3236  -3.3174  -3.3116  -3.3090  -3.3060  -3.3055  -3.3040  -3.3038
    -3.2978  -3.2961  -3.2916  -3.2876  -3.2874  -3.2188  -3.2186  -3.2178
    -3.2156  -3.2154  -3.2147  -3.2131  -3.1953  -3.1953  -3.1741  -3.1740
    -3.1721  -3.1503  -3.1478  -3.1436  -3.1401  -3.1400  -3.1342  -3.1301
    -3.1299  -3.1289  -3.1267  -3.1207  -3.1198  -3.1166  -3.1164  -3.1160
    -3.1159  -3.0912  -3.0884  -3.0800  -3.0754  -3.0745  -3.0664  -3.0656
    -3.0643  -3.0641  -3.0631  -3.0621  -3.0619  -3.0501  -3.0401  -3.0399
    -3.0337  -2.8957  -2.8929  -2.2746  -1.9341  -1.9337  -1.8451  -1.8420
    -1.6829  -1.6269  -1.6254  -1.6232  -1.6227  -1.2071  -1.2060  -1.1760
     3.4601   3.9177   3.9200   3.9233   3.9263   4.0350   4.0378   4.1261
     4.1729   4.1783   5.1165   5.1190   5.2918   5.9260   6.0921   6.0950
     6.3518   6.3564   7.1532   7.1543   7.6701   7.7225   7.7243   7.7290
     7.7300   8.1472   8.1509   8.2574   8.2609   8.4159   8.4239   8.4720
     8.4862   8.5407   8.5446   8.5451   8.5457   8.8669   8.8677   8.9785
     9.1527   9.1594   9.3005   9.3204   9.5055   9.5129  10.0371  10.0814

     occupation numbers 
     1.0000   1.0000   1.0000   1.0000   1.0000   1.0000   1.0000   1.0000
     1.0000   1.0000   1.0000   1.0000   1.0000   1.0000   1.0000   1.0000
     1.0000   1.0000   1.0000   1.0000   1.0000   1.0000   1.0000   1.0000
     1.0000   1.0000   1.0000   1.0000   1.0000   1.0000   1.0000   1.0000
     1.0000   1.0000   1.0000   1.0000   1.0000   1.0000   1.0000   1.0000
     1.0000   1.0000   1.0000   1.0000   1.0000   1.0000   1.0000   1.0000
     1.0000   1.0000   1.0000   1.0000   1.0000   1.0000   1.0000   1.0000
     1.0000   1.0000   1.0000   1.0000   1.0000   1.0000   1.0000   1.0000
     1.0000   1.0000   1.0000   1.0000   1.0000   1.0000   1.0000   1.0000
     1.0000   1.0000   1.0000   1.0000   1.0000   1.0000   1.0000   1.0000
     1.0000   1.0000   1.0000   1.0000   1.0000   1.0000   1.0000   1.0000
     1.0000   1.0000   1.0000   1.0000   1.0000   1.0000   1.0000   1.0000
     1.0000   1.0000   1.0000   1.0000   1.0000   1.0000   1.0000   1.0000
     1.0000   1.0000   1.0000   1.0000   1.0000   1.0000   1.0000   1.0000
     1.0000   1.0000   1.0000   1.0000   1.0000   1.0000   1.0000   1.0000
     1.0000   1.0000   1.0000   1.0000   1.0000   1.0000   1.0000   1.0000
     1.0000   1.0000   1.0000   1.0000   1.0000   1.0000   1.0000   1.0000
     1.0000   1.0000   1.0000   1.0000   1.0000   1.0000   1.0000   1.0000

          k = 0.0000 0.2309 0.1228 ( 78862 PWs)   bands (ev):

    -5.4223  -5.1109  -4.8898  -4.8182  -4.7710  -4.7669  -4.7593  -4.7184
    -4.6914  -4.6877  -4.6667  -4.6544  -4.6519  -4.6498  -4.6440  -4.6404
    -3.3607  -3.3503  -3.3439  -3.3366  -3.3271  -3.3234  -3.3218  -3.3215
    -3.3200  -3.3190  -3.3160  -3.3137  -3.3136  -3.2991  -3.2937  -3.2923
    -3.2919  -3.2904  -3.2902  -3.2845  -3.2843  -3.2449  -3.2447  -3.2407
    -3.2135  -3.1981  -3.1980  -3.1930  -3.1905  -3.1903  -3.1848  -3.1829
    -3.1826  -3.1752  -3.1505  -3.1451  -3.1448  -3.1446  -3.1407  -3.1404
    -3.1347  -3.1345  -3.1212  -3.1164  -3.1162  -3.1065  -3.1047  -3.1044
    -3.1031  -3.1028  -3.0798  -3.0764  -3.0746  -3.0737  -3.0695  -3.0683
    -3.0663  -3.0660  -3.0604  -3.0603  -3.0572  -3.0516  -3.0432  -3.0427
    -3.0418  -3.0359  -2.6524  -2.2583  -1.9998  -1.9217  -1.9213  -1.7811
    -1.7334  -1.7328  -1.6646  -1.5054  -1.5044  -1.2291  -1.2280  -1.2146
     3.6286   3.7912   3.7942   3.9691   3.9716   3.9995   4.0616   4.1458
     4.1483   4.4340   5.0142   5.0169   5.2539   5.5276   6.0516   6.2434
     6.2462   7.1792   7.2047   7.2058   7.3951   7.3971   7.6882   7.7046
     8.0264   8.0280   8.1469   8.1495   8.1772   8.2540   8.2574   8.4998
     8.5700   8.6616   8.6749   8.7795   8.7824   8.8138   8.8147   8.9377
     9.0036   9.1431   9.2531   9.3411   9.3889   9.6812   9.9682  10.0524

     occupation numbers 
     1.0000   1.0000   1.0000   1.0000   1.0000   1.0000   1.0000   1.0000
     1.0000   1.0000   1.0000   1.0000   1.0000   1.0000   1.0000   1.0000
     1.0000   1.0000   1.0000   1.0000   1.0000   1.0000   1.0000   1.0000
     1.0000   1.0000   1.0000   1.0000   1.0000   1.0000   1.0000   1.0000
     1.0000   1.0000   1.0000   1.0000   1.0000   1.0000   1.0000   1.0000
     1.0000   1.0000   1.0000   1.0000   1.0000   1.0000   1.0000   1.0000
     1.0000   1.0000   1.0000   1.0000   1.0000   1.0000   1.0000   1.0000
     1.0000   1.0000   1.0000   1.0000   1.0000   1.0000   1.0000   1.0000
     1.0000   1.0000   1.0000   1.0000   1.0000   1.0000   1.0000   1.0000
     1.0000   1.0000   1.0000   1.0000   1.0000   1.0000   1.0000   1.0000
     1.0000   1.0000   1.0000   1.0000   1.0000   1.0000   1.0000   1.0000
     1.0000   1.0000   1.0000   1.0000   1.0000   1.0000   1.0000   1.0000
     1.0000   1.0000   1.0000   1.0000   1.0000   1.0000   1.0000   1.0000
     1.0000   1.0000   1.0000   1.0000   1.0000   1.0000   1.0000   1.0000
     1.0000   1.0000   1.0000   1.0000   1.0000   1.0000   1.0000   1.0000
     1.0000   1.0000   1.0000   1.0000   1.0000   1.0000   1.0000   1.0000
     1.0000   1.0000   1.0000   1.0000   1.0000   1.0000   1.0000   1.0000
     1.0000   1.0000   1.0000   1.0000   1.0000   1.0000   1.0000   1.0000

          k = 0.0000 0.2309 0.2456 ( 78820 PWs)   bands (ev):

    -5.3487  -5.2382  -4.8224  -4.7930  -4.7806  -4.7571  -4.7487  -4.7454
    -4.7194  -4.7164  -4.6586  -4.6508  -4.6484  -4.6465  -4.6404  -4.6370
    -3.3559  -3.3494  -3.3493  -3.3416  -3.3262  -3.3205  -3.3192  -3.3187
    -3.3174  -3.3136  -3.3133  -3.3098  -3.3095  -3.2990  -3.2921  -3.2877
    -3.2874  -3.2813  -3.2716  -3.2713  -3.2646  -3.2624  -3.2562  -3.2560
    -3.2441  -3.2332  -3.2257  -3.2256  -3.1822  -3.1739  -3.1734  -3.1731
    -3.1695  -3.1692  -3.1620  -3.1586  -3.1544  -3.1542  -3.1522  -3.1520
    -3.1326  -3.1318  -3.1185  -3.1083  -3.1068  -3.1026  -3.1022  -3.1012
    -3.0971  -3.0969  -3.0830  -3.0793  -3.0739  -3.0736  -3.0726  -3.0722
    -3.0675  -3.0671  -3.0658  -3.0574  -3.0572  -3.0559  -3.0503  -3.0491
    -3.0487  -3.0412  -2.3485  -2.2085  -2.1223  -2.0323  -1.8844  -1.8840
    -1.8212  -1.8207  -1.4824  -1.3893  -1.3881  -1.3233  -1.2924  -1.2913
     3.7694   3.7724   3.8460   3.8483   3.9261   3.9590   4.0899   4.4393
     4.4417   4.7432   4.7502   4.7559   4.7584   5.0496   6.4669   6.6129
     6.6156   7.0301   7.0330   7.0560   7.3726   7.3736   7.6880   7.6895
     7.8058   7.9548   7.9673   8.3323   8.3334   8.4461   8.4493   8.5349
     8.7033   8.7045   8.7099   8.7372   8.7548   8.7798   8.7826   8.8147
     8.9168   9.0767   9.1188   9.1929   9.6145   9.8133   9.8399   9.9687

     occupation numbers 
     1.0000   1.0000   1.0000   1.0000   1.0000   1.0000   1.0000   1.0000
     1.0000   1.0000   1.0000   1.0000   1.0000   1.0000   1.0000   1.0000
     1.0000   1.0000   1.0000   1.0000   1.0000   1.0000   1.0000   1.0000
     1.0000   1.0000   1.0000   1.0000   1.0000   1.0000   1.0000   1.0000
     1.0000   1.0000   1.0000   1.0000   1.0000   1.0000   1.0000   1.0000
     1.0000   1.0000   1.0000   1.0000   1.0000   1.0000   1.0000   1.0000
     1.0000   1.0000   1.0000   1.0000   1.0000   1.0000   1.0000   1.0000
     1.0000   1.0000   1.0000   1.0000   1.0000   1.0000   1.0000   1.0000
     1.0000   1.0000   1.0000   1.0000   1.0000   1.0000   1.0000   1.0000
     1.0000   1.0000   1.0000   1.0000   1.0000   1.0000   1.0000   1.0000
     1.0000   1.0000   1.0000   1.0000   1.0000   1.0000   1.0000   1.0000
     1.0000   1.0000   1.0000   1.0000   1.0000   1.0000   1.0000   1.0000
     1.0000   1.0000   1.0000   1.0000   1.0000   1.0000   1.0000   1.0000
     1.0000   1.0000   1.0000   1.0000   1.0000   1.0000   1.0000   1.0000
     1.0000   1.0000   1.0000   1.0000   1.0000   1.0000   1.0000   1.0000
     1.0000   1.0000   1.0000   1.0000   1.0000   1.0000   1.0000   1.0000
     1.0000   1.0000   1.0000   1.0000   1.0000   1.0000   1.0000   1.0000
     1.0000   1.0000   1.0000   1.0000   1.0000   1.0000   1.0000   1.0000

          k = 0.0000 0.4619 0.0000 ( 78795 PWs)   bands (ev):

    -5.2228  -4.9792  -4.8707  -4.8626  -4.7690  -4.7645  -4.7542  -4.7473
    -4.7103  -4.6737  -4.6669  -4.6621  -4.6585  -4.6578  -4.6486  -4.6457
    -3.3424  -3.3423  -3.3359  -3.3219  -3.3169  -3.3122  -3.3096  -3.3025
    -3.3013  -3.3008  -3.2898  -3.2866  -3.2790  -3.2783  -3.2772  -3.2771
    -3.2710  -3.2484  -3.2479  -3.2460  -3.2449  -3.2423  -3.2317  -3.2313
    -3.2301  -3.2284  -3.2280  -3.1936  -3.1898  -3.1840  -3.1839  -3.1768
    -3.1766  -3.1764  -3.1691  -3.1629  -3.1627  -3.1597  -3.1577  -3.1507
    -3.1484  -3.1460  -3.1452  -3.1445  -3.1441  -3.1387  -3.1385  -3.1368
    -3.1365  -3.1142  -3.0903  -3.0878  -3.0875  -3.0870  -3.0852  -3.0821
    -3.0795  -3.0711  -3.0708  -3.0699  -3.0693  -3.0591  -3.0587  -3.0458
    -3.0402  -2.8256  -2.6694  -2.6668  -2.2932  -2.2905  -2.0244  -2.0240
    -1.6364  -1.6348  -1.6326  -1.6321  -1.4972  -1.2678  -1.0914  -1.0901
     3.8445   4.2786   4.2814   4.2843   4.2869   4.3107   4.4457   4.4474
     5.1636   5.1672   5.2078   5.2111   5.6989   6.0521   6.0539   6.1751
     6.1765   6.4914   6.4926   6.6974   7.0247   7.0344   7.0357   7.0415
     7.0434   7.9889   8.0287   8.1329   8.1355   8.2522   8.2534   8.3245
     8.3280   8.3609   8.3647   8.5208   8.5855   8.5908   8.5910   8.5912
     8.7256   8.7335   9.1391   9.1467   9.1893   9.5401   9.7317   9.8416

     occupation numbers 
     1.0000   1.0000   1.0000   1.0000   1.0000   1.0000   1.0000   1.0000
     1.0000   1.0000   1.0000   1.0000   1.0000   1.0000   1.0000   1.0000
     1.0000   1.0000   1.0000   1.0000   1.0000   1.0000   1.0000   1.0000
     1.0000   1.0000   1.0000   1.0000   1.0000   1.0000   1.0000   1.0000
     1.0000   1.0000   1.0000   1.0000   1.0000   1.0000   1.0000   1.0000
     1.0000   1.0000   1.0000   1.0000   1.0000   1.0000   1.0000   1.0000
     1.0000   1.0000   1.0000   1.0000   1.0000   1.0000   1.0000   1.0000
     1.0000   1.0000   1.0000   1.0000   1.0000   1.0000   1.0000   1.0000
     1.0000   1.0000   1.0000   1.0000   1.0000   1.0000   1.0000   1.0000
     1.0000   1.0000   1.0000   1.0000   1.0000   1.0000   1.0000   1.0000
     1.0000   1.0000   1.0000   1.0000   1.0000   1.0000   1.0000   1.0000
     1.0000   1.0000   1.0000   1.0000   1.0000   1.0000   1.0000   1.0000
     1.0000   1.0000   1.0000   1.0000   1.0000   1.0000   1.0000   1.0000
     1.0000   1.0000   1.0000   1.0000   1.0000   1.0000   1.0000   1.0000
     1.0000   1.0000   1.0000   1.0000   1.0000   1.0000   1.0000   1.0000
     1.0000   1.0000   1.0000   1.0000   1.0000   1.0000   1.0000   1.0000
     1.0000   1.0000   1.0000   1.0000   1.0000   1.0000   1.0000   1.0000
     1.0000   1.0000   1.0000   1.0000   1.0000   1.0000   1.0000   1.0000

          k = 0.0000 0.4619 0.1228 ( 78818 PWs)   bands (ev):

    -5.2015  -4.9653  -4.9556  -4.8061  -4.7972  -4.7603  -4.7566  -4.7148
    -4.7118  -4.6852  -4.6812  -4.6717  -4.6539  -4.6510  -4.6446  -4.6420
    -3.3374  -3.3373  -3.3352  -3.3215  -3.3207  -3.3182  -3.3120  -3.3000
    -3.2994  -3.2982  -3.2869  -3.2854  -3.2848  -3.2763  -3.2750  -3.2728
    -3.2726  -3.2614  -3.2533  -3.2530  -3.2481  -3.2476  -3.2469  -3.2355
    -3.2264  -3.2062  -3.2059  -3.1962  -3.1961  -3.1955  -3.1922  -3.1757
    -3.1749  -3.1735  -3.1733  -3.1586  -3.1585  -3.1557  -3.1526  -3.1491
    -3.1486  -3.1445  -3.1433  -3.1388  -3.1383  -3.1370  -3.1362  -3.1344
    -3.1340  -3.1127  -3.1031  -3.0918  -3.0848  -3.0839  -3.0827  -3.0766
    -3.0761  -3.0752  -3.0692  -3.0678  -3.0675  -3.0630  -3.0624  -3.0476
    -3.0424  -2.8591  -2.8069  -2.4946  -2.4132  -2.0450  -2.0087  -2.0083
    -1.7710  -1.7703  -1.5855  -1.4827  -1.4817  -1.3368  -1.1212  -1.1200
     3.9828   4.1673   4.1702   4.3482   4.3709   4.3724   4.4796   4.4823
     4.8755   5.1498   5.1535   5.4705   5.4897   5.8000   6.2549   6.2568
     6.5873   6.5883   6.5919   6.6238   6.7446   6.7464   7.0699   7.3587
     7.3598   7.5081   7.8849   7.9347   8.0611   8.1315   8.1336   8.1898
     8.1909   8.4230   8.4267   8.5034   8.5500   8.6803   8.8243   8.8404
     8.8435   8.9435   8.9661   9.2109   9.3493   9.4970   9.6916   9.8052

     occupation numbers 
     1.0000   1.0000   1.0000   1.0000   1.0000   1.0000   1.0000   1.0000
     1.0000   1.0000   1.0000   1.0000   1.0000   1.0000   1.0000   1.0000
     1.0000   1.0000   1.0000   1.0000   1.0000   1.0000   1.0000   1.0000
     1.0000   1.0000   1.0000   1.0000   1.0000   1.0000   1.0000   1.0000
     1.0000   1.0000   1.0000   1.0000   1.0000   1.0000   1.0000   1.0000
     1.0000   1.0000   1.0000   1.0000   1.0000   1.0000   1.0000   1.0000
     1.0000   1.0000   1.0000   1.0000   1.0000   1.0000   1.0000   1.0000
     1.0000   1.0000   1.0000   1.0000   1.0000   1.0000   1.0000   1.0000
     1.0000   1.0000   1.0000   1.0000   1.0000   1.0000   1.0000   1.0000
     1.0000   1.0000   1.0000   1.0000   1.0000   1.0000   1.0000   1.0000
     1.0000   1.0000   1.0000   1.0000   1.0000   1.0000   1.0000   1.0000
     1.0000   1.0000   1.0000   1.0000   1.0000   1.0000   1.0000   1.0000
     1.0000   1.0000   1.0000   1.0000   1.0000   1.0000   1.0000   1.0000
     1.0000   1.0000   1.0000   1.0000   1.0000   1.0000   1.0000   1.0000
     1.0000   1.0000   1.0000   1.0000   1.0000   1.0000   1.0000   1.0000
     1.0000   1.0000   1.0000   1.0000   1.0000   1.0000   1.0000   1.0000
     1.0000   1.0000   1.0000   1.0000   1.0000   1.0000   1.0000   1.0000
     1.0000   1.0000   1.0000   1.0000   1.0000   1.0000   1.0000   1.0000

          k = 0.0000 0.4619 0.2456 ( 78849 PWs)   bands (ev):

    -5.1418  -5.0538  -4.9244  -4.8664  -4.7539  -4.7407  -4.7369  -4.7251
    -4.7114  -4.7081  -4.6900  -4.6757  -4.6510  -4.6477  -4.6412  -4.6387
    -3.3336  -3.3286  -3.3232  -3.3230  -3.3212  -3.3173  -3.3166  -3.3078
    -3.3009  -3.3007  -3.2908  -3.2907  -3.2826  -3.2768  -3.2747  -3.2745
    -3.2688  -3.2654  -3.2642  -3.2638  -3.2535  -3.2494  -3.2348  -3.2345
    -3.2148  -3.2147  -3.2116  -3.1992  -3.1950  -3.1901  -3.1899  -3.1871
    -3.1792  -3.1790  -3.1713  -3.1620  -3.1525  -3.1524  -3.1504  -3.1500
    -3.1385  -3.1359  -3.1341  -3.1312  -3.1309  -3.1301  -3.1292  -3.1275
    -3.1271  -3.1162  -3.1091  -3.1002  -3.0840  -3.0829  -3.0783  -3.0782
    -3.0714  -3.0710  -3.0681  -3.0675  -3.0637  -3.0598  -3.0586  -3.0528
    -3.0482  -2.9869  -2.7488  -2.6463  -2.1143  -1.9614  -1.9609  -1.8816
    -1.8810  -1.8157  -1.7758  -1.5225  -1.3333  -1.3321  -1.2062  -1.2050
     4.1531   4.1559   4.2363   4.2378   4.3584   4.4593   4.6370   4.7283
     4.7312   4.8838   4.9754   4.9791   5.8075   5.9649   6.3571   6.3591
     6.5111   6.5132   6.5610   6.9153   6.9759   6.9770   7.0381   7.1719
     7.4940   7.4954   7.6181   7.6428   7.7530   7.7540   7.9974   7.9985
     8.1560   8.3074   8.6347   8.6530   8.6568   8.7697   8.8412   8.8446
     9.0512   9.1890   9.2071   9.2411   9.3742   9.5391   9.5425   9.7010

     occupation numbers 
     1.0000   1.0000   1.0000   1.0000   1.0000   1.0000   1.0000   1.0000
     1.0000   1.0000   1.0000   1.0000   1.0000   1.0000   1.0000   1.0000
     1.0000   1.0000   1.0000   1.0000   1.0000   1.0000   1.0000   1.0000
     1.0000   1.0000   1.0000   1.0000   1.0000   1.0000   1.0000   1.0000
     1.0000   1.0000   1.0000   1.0000   1.0000   1.0000   1.0000   1.0000
     1.0000   1.0000   1.0000   1.0000   1.0000   1.0000   1.0000   1.0000
     1.0000   1.0000   1.0000   1.0000   1.0000   1.0000   1.0000   1.0000
     1.0000   1.0000   1.0000   1.0000   1.0000   1.0000   1.0000   1.0000
     1.0000   1.0000   1.0000   1.0000   1.0000   1.0000   1.0000   1.0000
     1.0000   1.0000   1.0000   1.0000   1.0000   1.0000   1.0000   1.0000
     1.0000   1.0000   1.0000   1.0000   1.0000   1.0000   1.0000   1.0000
     1.0000   1.0000   1.0000   1.0000   1.0000   1.0000   1.0000   1.0000
     1.0000   1.0000   1.0000   1.0000   1.0000   1.0000   1.0000   1.0000
     1.0000   1.0000   1.0000   1.0000   1.0000   1.0000   1.0000   1.0000
     1.0000   1.0000   1.0000   1.0000   1.0000   1.0000   1.0000   1.0000
     1.0000   1.0000   1.0000   1.0000   1.0000   1.0000   1.0000   1.0000
     1.0000   1.0000   1.0000   1.0000   1.0000   1.0000   1.0000   1.0000
     1.0000   1.0000   1.0000   1.0000   1.0000   1.0000   1.0000   1.0000

          k = 0.2000 0.3464 0.0000 ( 78840 PWs)   bands (ev):

    -5.2905  -4.9061  -4.8977  -4.8680  -4.8639  -4.7279  -4.7232  -4.7082
    -4.7027  -4.7008  -4.6963  -4.6599  -4.6564  -4.6535  -4.6463  -4.6391
    -3.3486  -3.3411  -3.3314  -3.3186  -3.3175  -3.3159  -3.3153  -3.3027
    -3.2997  -3.2990  -3.2984  -3.2960  -3.2956  -3.2911  -3.2905  -3.2808
    -3.2794  -3.2781  -3.2749  -3.2447  -3.2334  -3.2324  -3.2302  -3.2300
    -3.2293  -3.2274  -3.2245  -3.2083  -3.2075  -3.1799  -3.1790  -3.1724
    -3.1708  -3.1698  -3.1695  -3.1628  -3.1555  -3.1540  -3.1461  -3.1456
    -3.1447  -3.1443  -3.1433  -3.1421  -3.1363  -3.1360  -3.1351  -3.1229
    -3.1216  -3.0948  -3.0947  -3.0918  -3.0905  -3.0889  -3.0862  -3.0794
    -3.0782  -3.0723  -3.0716  -3.0702  -3.0695  -3.0576  -3.0467  -3.0463
    -3.0452  -2.7429  -2.7403  -2.5002  -2.4992  -2.0027  -2.0006  -1.9995
    -1.9975  -1.6369  -1.5551  -1.4383  -1.4351  -1.2089  -1.1583  -1.1563
     3.7219   3.9968   4.0035   4.2745   4.3925   4.3960   4.6403   4.6431
     4.6450   4.6481   5.0988   5.4643   5.4666   5.8958   6.1264   6.1281
     6.1952   6.1980   6.7715   6.7896   6.7966   7.4395   7.4402   7.5675
     7.8254   7.9495   7.9508   7.9539   7.9577   8.0961   8.1055   8.4517
     8.4519   8.4558   8.4575   8.5816   8.5854   8.6777   8.6809   8.8075
     8.8097   8.8147   9.0749   9.0767   9.1686   9.1776   9.8272   9.8426

     occupation numbers 
     1.0000   1.0000   1.0000   1.0000   1.0000   1.0000   1.0000   1.0000
     1.0000   1.0000   1.0000   1.0000   1.0000   1.0000   1.0000   1.0000
     1.0000   1.0000   1.0000   1.0000   1.0000   1.0000   1.0000   1.0000
     1.0000   1.0000   1.0000   1.0000   1.0000   1.0000   1.0000   1.0000
     1.0000   1.0000   1.0000   1.0000   1.0000   1.0000   1.0000   1.0000
     1.0000   1.0000   1.0000   1.0000   1.0000   1.0000   1.0000   1.0000
     1.0000   1.0000   1.0000   1.0000   1.0000   1.0000   1.0000   1.0000
     1.0000   1.0000   1.0000   1.0000   1.0000   1.0000   1.0000   1.0000
     1.0000   1.0000   1.0000   1.0000   1.0000   1.0000   1.0000   1.0000
     1.0000   1.0000   1.0000   1.0000   1.0000   1.0000   1.0000   1.0000
     1.0000   1.0000   1.0000   1.0000   1.0000   1.0000   1.0000   1.0000
     1.0000   1.0000   1.0000   1.0000   1.0000   1.0000   1.0000   1.0000
     1.0000   1.0000   1.0000   1.0000   1.0000   1.0000   1.0000   1.0000
     1.0000   1.0000   1.0000   1.0000   1.0000   1.0000   1.0000   1.0000
     1.0000   1.0000   1.0000   1.0000   1.0000   1.0000   1.0000   1.0000
     1.0000   1.0000   1.0000   1.0000   1.0000   1.0000   1.0000   1.0000
     1.0000   1.0000   1.0000   1.0000   1.0000   1.0000   1.0000   1.0000
     1.0000   1.0000   1.0000   1.0000   1.0000   1.0000   1.0000   1.0000

          k = 0.2000 0.3464 0.1228 ( 78810 PWs)   bands (ev):

    -5.2677  -5.0012  -4.8582  -4.8533  -4.8231  -4.7423  -4.7379  -4.7264
    -4.7202  -4.6795  -4.6756  -4.6639  -4.6571  -4.6553  -4.6480  -4.6358
    -3.3432  -3.3405  -3.3304  -3.3254  -3.3148  -3.3133  -3.3125  -3.3065
    -3.3057  -3.3053  -3.2948  -3.2941  -3.2915  -3.2878  -3.2827  -3.2812
    -3.2799  -3.2754  -3.2639  -3.2586  -3.2523  -3.2516  -3.2491  -3.2231
    -3.2174  -3.2155  -3.2112  -3.2111  -3.1982  -3.1853  -3.1793  -3.1783
    -3.1766  -3.1716  -3.1703  -3.1662  -3.1545  -3.1541  -3.1532  -3.1496
    -3.1410  -3.1363  -3.1356  -3.1354  -3.1333  -3.1321  -3.1312  -3.1198
    -3.1134  -3.1001  -3.0923  -3.0918  -3.0914  -3.0894  -3.0821  -3.0787
    -3.0778  -3.0768  -3.0754  -3.0672  -3.0660  -3.0619  -3.0492  -3.0490
    -3.0465  -2.9224  -2.4905  -2.4818  -2.4807  -2.1849  -2.1835  -1.7849
    -1.7833  -1.6468  -1.6283  -1.5035  -1.3670  -1.2198  -1.2105  -1.2085
     3.8719   3.9285   4.1734   4.2110   4.3476   4.3503   4.4372   4.4400
     4.9128   4.9141   4.9882   5.5232   5.5334   5.5354   5.9233   6.1533
     6.1558   6.4772   6.8284   6.9394   7.1382   7.4632   7.4638   7.5239
     7.5280   7.6108   7.9045   7.9974   8.0003   8.0344   8.0839   8.2406
     8.3308   8.3338   8.3446   8.7681   8.7742   8.8299   8.8333   8.8588
     8.8620   8.8659   9.0340   9.0358   9.0998   9.3568   9.7918   9.7992

     occupation numbers 
     1.0000   1.0000   1.0000   1.0000   1.0000   1.0000   1.0000   1.0000
     1.0000   1.0000   1.0000   1.0000   1.0000   1.0000   1.0000   1.0000
     1.0000   1.0000   1.0000   1.0000   1.0000   1.0000   1.0000   1.0000
     1.0000   1.0000   1.0000   1.0000   1.0000   1.0000   1.0000   1.0000
     1.0000   1.0000   1.0000   1.0000   1.0000   1.0000   1.0000   1.0000
     1.0000   1.0000   1.0000   1.0000   1.0000   1.0000   1.0000   1.0000
     1.0000   1.0000   1.0000   1.0000   1.0000   1.0000   1.0000   1.0000
     1.0000   1.0000   1.0000   1.0000   1.0000   1.0000   1.0000   1.0000
     1.0000   1.0000   1.0000   1.0000   1.0000   1.0000   1.0000   1.0000
     1.0000   1.0000   1.0000   1.0000   1.0000   1.0000   1.0000   1.0000
     1.0000   1.0000   1.0000   1.0000   1.0000   1.0000   1.0000   1.0000
     1.0000   1.0000   1.0000   1.0000   1.0000   1.0000   1.0000   1.0000
     1.0000   1.0000   1.0000   1.0000   1.0000   1.0000   1.0000   1.0000
     1.0000   1.0000   1.0000   1.0000   1.0000   1.0000   1.0000   1.0000
     1.0000   1.0000   1.0000   1.0000   1.0000   1.0000   1.0000   1.0000
     1.0000   1.0000   1.0000   1.0000   1.0000   1.0000   1.0000   1.0000
     1.0000   1.0000   1.0000   1.0000   1.0000   1.0000   1.0000   1.0000
     1.0000   1.0000   1.0000   1.0000   1.0000   1.0000   1.0000   1.0000

          k = 0.2000 0.3464 0.2456 ( 78818 PWs)   bands (ev):

    -5.2034  -5.1081  -4.8286  -4.8236  -4.7855  -4.7815  -4.7708  -4.7406
    -4.7054  -4.6829  -4.6679  -4.6636  -4.6571  -4.6542  -4.6451  -4.6354
    -3.3385  -3.3323  -3.3280  -3.3275  -3.3190  -3.3119  -3.3108  -3.3068
    -3.3060  -3.3046  -3.2975  -3.2938  -3.2927  -3.2875  -3.2838  -3.2801
    -3.2785  -3.2770  -3.2689  -3.2605  -3.2538  -3.2524  -3.2401  -3.2345
    -3.2327  -3.2161  -3.2125  -3.2009  -3.1962  -3.1957  -3.1841  -3.1831
    -3.1757  -3.1679  -3.1660  -3.1614  -3.1611  -3.1598  -3.1545  -3.1417
    -3.1355  -3.1309  -3.1299  -3.1287  -3.1284  -3.1277  -3.1175  -3.1048
    -3.1042  -3.1027  -3.0953  -3.0917  -3.0869  -3.0867  -3.0852  -3.0806
    -3.0797  -3.0792  -3.0778  -3.0721  -3.0634  -3.0626  -3.0554  -3.0551
    -3.0489  -3.0288  -2.4252  -2.4241  -2.3269  -2.3257  -2.1894  -1.8845
    -1.6027  -1.5601  -1.5587  -1.5569  -1.3547  -1.3527  -1.3029  -1.2516
     3.9605   4.0744   4.2805   4.2945   4.2963   4.3179   4.3208   4.4298
     4.7267   4.8615   5.2106   5.2119   5.4682   5.4692   6.0264   6.2155
     6.4386   6.4424   6.9679   6.9716   7.3520   7.3790   7.4800   7.5524
     7.5530   7.7274   7.7286   7.7399   7.7728   7.8010   7.8623   7.9523
     8.3157   8.6003   8.6030   8.6200   8.7389   8.7983   8.8203   8.8233
     9.0278   9.0344   9.0364   9.0385   9.3804   9.5391   9.6472   9.6914

     occupation numbers 
     1.0000   1.0000   1.0000   1.0000   1.0000   1.0000   1.0000   1.0000
     1.0000   1.0000   1.0000   1.0000   1.0000   1.0000   1.0000   1.0000
     1.0000   1.0000   1.0000   1.0000   1.0000   1.0000   1.0000   1.0000
     1.0000   1.0000   1.0000   1.0000   1.0000   1.0000   1.0000   1.0000
     1.0000   1.0000   1.0000   1.0000   1.0000   1.0000   1.0000   1.0000
     1.0000   1.0000   1.0000   1.0000   1.0000   1.0000   1.0000   1.0000
     1.0000   1.0000   1.0000   1.0000   1.0000   1.0000   1.0000   1.0000
     1.0000   1.0000   1.0000   1.0000   1.0000   1.0000   1.0000   1.0000
     1.0000   1.0000   1.0000   1.0000   1.0000   1.0000   1.0000   1.0000
     1.0000   1.0000   1.0000   1.0000   1.0000   1.0000   1.0000   1.0000
     1.0000   1.0000   1.0000   1.0000   1.0000   1.0000   1.0000   1.0000
     1.0000   1.0000   1.0000   1.0000   1.0000   1.0000   1.0000   1.0000
     1.0000   1.0000   1.0000   1.0000   1.0000   1.0000   1.0000   1.0000
     1.0000   1.0000   1.0000   1.0000   1.0000   1.0000   1.0000   1.0000
     1.0000   1.0000   1.0000   1.0000   1.0000   1.0000   1.0000   1.0000
     1.0000   1.0000   1.0000   1.0000   1.0000   1.0000   1.0000   1.0000
     1.0000   1.0000   1.0000   1.0000   1.0000   1.0000   1.0000   1.0000
     1.0000   1.0000   1.0000   1.0000   1.0000   1.0000   1.0000   1.0000

          k = 0.2000 0.5774 0.0000 ( 78832 PWs)   bands (ev):

    -5.0582  -5.0551  -4.8813  -4.7931  -4.7866  -4.7828  -4.7815  -4.7125
    -4.7044  -4.7002  -4.6832  -4.6823  -4.6618  -4.6581  -4.6400  -4.6333
    -3.3595  -3.3274  -3.3159  -3.3149  -3.3121  -3.3107  -3.2951  -3.2947
    -3.2932  -3.2929  -3.2795  -3.2787  -3.2702  -3.2671  -3.2661  -3.2640
    -3.2637  -3.2600  -3.2593  -3.2465  -3.2449  -3.2446  -3.2437  -3.2377
    -3.2348  -3.2224  -3.2221  -3.2179  -3.1989  -3.1908  -3.1804  -3.1765
    -3.1758  -3.1715  -3.1690  -3.1655  -3.1648  -3.1646  -3.1640  -3.1634
    -3.1627  -3.1565  -3.1455  -3.1318  -3.1294  -3.1273  -3.1270  -3.1266
    -3.1190  -3.1188  -3.1042  -3.1000  -3.0879  -3.0875  -3.0848  -3.0842
    -3.0825  -3.0821  -3.0728  -3.0711  -3.0681  -3.0623  -3.0617  -3.0604
    -2.9550  -2.9544  -2.5701  -2.4386  -2.4377  -2.4357  -2.4352  -2.0549
    -2.0519  -1.5419  -1.3663  -1.3630  -1.3402  -1.3396  -1.1790  -1.1526
     4.1519   4.1572   4.1705   4.1740   4.5014   4.7356   4.8949   4.9226
     4.9269   5.4863   5.5932   5.5939   5.5952   5.5979   5.9018   5.9782
     6.2941   6.3015   6.3173   6.3206   6.9013   7.0025   7.0041   7.2449
     7.6757   7.6980   7.6992   7.7050   8.0855   8.0866   8.1831   8.1843
     8.1867   8.1873   8.4117   8.4135   8.6554   8.6593   8.6625   8.6664
     8.7265   8.7298   8.7773   8.9533   9.4297   9.4310   9.4378   9.4394

     occupation numbers 
     1.0000   1.0000   1.0000   1.0000   1.0000   1.0000   1.0000   1.0000
     1.0000   1.0000   1.0000   1.0000   1.0000   1.0000   1.0000   1.0000
     1.0000   1.0000   1.0000   1.0000   1.0000   1.0000   1.0000   1.0000
     1.0000   1.0000   1.0000   1.0000   1.0000   1.0000   1.0000   1.0000
     1.0000   1.0000   1.0000   1.0000   1.0000   1.0000   1.0000   1.0000
     1.0000   1.0000   1.0000   1.0000   1.0000   1.0000   1.0000   1.0000
     1.0000   1.0000   1.0000   1.0000   1.0000   1.0000   1.0000   1.0000
     1.0000   1.0000   1.0000   1.0000   1.0000   1.0000   1.0000   1.0000
     1.0000   1.0000   1.0000   1.0000   1.0000   1.0000   1.0000   1.0000
     1.0000   1.0000   1.0000   1.0000   1.0000   1.0000   1.0000   1.0000
     1.0000   1.0000   1.0000   1.0000   1.0000   1.0000   1.0000   1.0000
     1.0000   1.0000   1.0000   1.0000   1.0000   1.0000   1.0000   1.0000
     1.0000   1.0000   1.0000   1.0000   1.0000   1.0000   1.0000   1.0000
     1.0000   1.0000   1.0000   1.0000   1.0000   1.0000   1.0000   1.0000
     1.0000   1.0000   1.0000   1.0000   1.0000   1.0000   1.0000   1.0000
     1.0000   1.0000   1.0000   1.0000   1.0000   1.0000   1.0000   1.0000
     1.0000   1.0000   1.0000   1.0000   1.0000   1.0000   1.0000   1.0000
     1.0000   1.0000   1.0000   1.0000   1.0000   1.0000   1.0000   1.0000

          k = 0.2000 0.5774 0.1228 ( 78804 PWs)   bands (ev):

    -5.0413  -5.0381  -4.8698  -4.8526  -4.8497  -4.7483  -4.7379  -4.7365
    -4.6968  -4.6873  -4.6841  -4.6787  -4.6603  -4.6572  -4.6464  -4.6339
    -3.3537  -3.3234  -3.3142  -3.3132  -3.3123  -3.3111  -3.3047  -3.3033
    -3.2865  -3.2848  -3.2836  -3.2781  -3.2777  -3.2773  -3.2763  -3.2735
    -3.2574  -3.2537  -3.2529  -3.2516  -3.2489  -3.2480  -3.2461  -3.2327
    -3.2262  -3.2254  -3.2203  -3.2104  -3.2042  -3.2030  -3.1843  -3.1720
    -3.1708  -3.1693  -3.1675  -3.1648  -3.1642  -3.1635  -3.1595  -3.1590
    -3.1542  -3.1468  -3.1382  -3.1348  -3.1328  -3.1324  -3.1304  -3.1269
    -3.1145  -3.1142  -3.1026  -3.0940  -3.0933  -3.0917  -3.0910  -3.0860
    -3.0767  -3.0762  -3.0756  -3.0736  -3.0715  -3.0643  -3.0629  -3.0624
    -2.9385  -2.9379  -2.6405  -2.6403  -2.5512  -2.2451  -2.1823  -2.1819
    -1.8265  -1.5339  -1.4223  -1.4172  -1.4169  -1.3065  -1.2100  -1.1876
     4.1485   4.2600   4.2666   4.2688   4.4900   4.6373   4.7090   4.8475
     5.1875   5.2150   5.2166   5.4726   5.8531   5.9648   5.9705   5.9728
     6.1394   6.3858   6.3883   6.6657   6.9461   6.9483   7.0746   7.2213
     7.4690   7.5949   7.6468   7.6482   7.7198   7.8400   8.0794   8.0812
     8.0820   8.3590   8.3600   8.4579   8.7173   8.7416   8.7434   8.7452
     8.8550   8.9222   8.9233   9.0131   9.3748   9.3769   9.4520   9.4557

     occupation numbers 
     1.0000   1.0000   1.0000   1.0000   1.0000   1.0000   1.0000   1.0000
     1.0000   1.0000   1.0000   1.0000   1.0000   1.0000   1.0000   1.0000
     1.0000   1.0000   1.0000   1.0000   1.0000   1.0000   1.0000   1.0000
     1.0000   1.0000   1.0000   1.0000   1.0000   1.0000   1.0000   1.0000
     1.0000   1.0000   1.0000   1.0000   1.0000   1.0000   1.0000   1.0000
     1.0000   1.0000   1.0000   1.0000   1.0000   1.0000   1.0000   1.0000
     1.0000   1.0000   1.0000   1.0000   1.0000   1.0000   1.0000   1.0000
     1.0000   1.0000   1.0000   1.0000   1.0000   1.0000   1.0000   1.0000
     1.0000   1.0000   1.0000   1.0000   1.0000   1.0000   1.0000   1.0000
     1.0000   1.0000   1.0000   1.0000   1.0000   1.0000   1.0000   1.0000
     1.0000   1.0000   1.0000   1.0000   1.0000   1.0000   1.0000   1.0000
     1.0000   1.0000   1.0000   1.0000   1.0000   1.0000   1.0000   1.0000
     1.0000   1.0000   1.0000   1.0000   1.0000   1.0000   1.0000   1.0000
     1.0000   1.0000   1.0000   1.0000   1.0000   1.0000   1.0000   1.0000
     1.0000   1.0000   1.0000   1.0000   1.0000   1.0000   1.0000   1.0000
     1.0000   1.0000   1.0000   1.0000   1.0000   1.0000   1.0000   1.0000
     1.0000   1.0000   1.0000   1.0000   1.0000   1.0000   1.0000   1.0000
     1.0000   1.0000   1.0000   1.0000   1.0000   1.0000   1.0000   1.0000

          k = 0.2000 0.5774 0.2456 ( 78823 PWs)   bands (ev):

    -4.9945  -4.9909  -4.9254  -4.9230  -4.8383  -4.7929  -4.7107  -4.7071
    -4.6926  -4.6904  -4.6827  -4.6682  -4.6641  -4.6579  -4.6493  -4.6382
    -3.3372  -3.3154  -3.3138  -3.3122  -3.3103  -3.3100  -3.3095  -3.3061
    -3.3050  -3.2942  -3.2930  -3.2922  -3.2876  -3.2814  -3.2706  -3.2687
    -3.2592  -3.2573  -3.2473  -3.2429  -3.2423  -3.2409  -3.2333  -3.2327
    -3.2322  -3.2282  -3.2267  -3.2228  -3.2141  -3.2070  -3.1824  -3.1712
    -3.1660  -3.1650  -3.1621  -3.1616  -3.1608  -3.1518  -3.1513  -3.1499
    -3.1476  -3.1435  -3.1419  -3.1416  -3.1323  -3.1308  -3.1283  -3.1211
    -3.1079  -3.1073  -3.1018  -3.0995  -3.0989  -3.0947  -3.0899  -3.0871
    -3.0849  -3.0784  -3.0755  -3.0720  -3.0713  -3.0707  -3.0647  -3.0644
    -2.8854  -2.8848  -2.7883  -2.7880  -2.4931  -2.3919  -1.8974  -1.8968
    -1.6231  -1.6224  -1.5861  -1.5103  -1.4715  -1.3667  -1.2544  -1.2130
     4.2484   4.4318   4.4606   4.4940   4.5094   4.5134   4.5626   4.6851
     4.8452   4.8476   5.4631   5.5234   5.6976   5.7017   6.3155   6.3170
     6.5050   6.5061   6.5617   6.8671   6.8709   7.0329   7.1342   7.1481
     7.1501   7.2126   7.2940   7.3419   7.5233   8.0115   8.1066   8.1078
     8.1711   8.2071   8.2079   8.3134   8.5234   8.5517   9.0318   9.0326
     9.0904   9.1104   9.2283   9.2303   9.2402   9.2429   9.4128   9.4162

     occupation numbers 
     1.0000   1.0000   1.0000   1.0000   1.0000   1.0000   1.0000   1.0000
     1.0000   1.0000   1.0000   1.0000   1.0000   1.0000   1.0000   1.0000
     1.0000   1.0000   1.0000   1.0000   1.0000   1.0000   1.0000   1.0000
     1.0000   1.0000   1.0000   1.0000   1.0000   1.0000   1.0000   1.0000
     1.0000   1.0000   1.0000   1.0000   1.0000   1.0000   1.0000   1.0000
     1.0000   1.0000   1.0000   1.0000   1.0000   1.0000   1.0000   1.0000
     1.0000   1.0000   1.0000   1.0000   1.0000   1.0000   1.0000   1.0000
     1.0000   1.0000   1.0000   1.0000   1.0000   1.0000   1.0000   1.0000
     1.0000   1.0000   1.0000   1.0000   1.0000   1.0000   1.0000   1.0000
     1.0000   1.0000   1.0000   1.0000   1.0000   1.0000   1.0000   1.0000
     1.0000   1.0000   1.0000   1.0000   1.0000   1.0000   1.0000   1.0000
     1.0000   1.0000   1.0000   1.0000   1.0000   1.0000   1.0000   1.0000
     1.0000   1.0000   1.0000   1.0000   1.0000   1.0000   1.0000   1.0000
     1.0000   1.0000   1.0000   1.0000   1.0000   1.0000   1.0000   1.0000
     1.0000   1.0000   1.0000   1.0000   1.0000   1.0000   1.0000   1.0000
     1.0000   1.0000   1.0000   1.0000   1.0000   1.0000   1.0000   1.0000
     1.0000   1.0000   1.0000   1.0000   1.0000   1.0000   1.0000   1.0000
     1.0000   1.0000   1.0000   1.0000   1.0000   1.0000   1.0000   1.0000

          k =-0.2000 0.1155 0.0000 ( 78863 PWs)   bands (ev):

    -5.4481  -4.9927  -4.9843  -4.8275  -4.7771  -4.7752  -4.7538  -4.6911
    -4.6839  -4.6722  -4.6660  -4.6641  -4.6610  -4.6516  -4.6468  -4.6426
    -3.3632  -3.3508  -3.3381  -3.3341  -3.3303  -3.3272  -3.3255  -3.3240
    -3.3238  -3.3173  -3.3115  -3.3090  -3.3064  -3.3056  -3.3040  -3.3034
    -3.2976  -3.2963  -3.2916  -3.2876  -3.2873  -3.2189  -3.2184  -3.2179
    -3.2155  -3.2151  -3.2150  -3.2132  -3.1953  -3.1953  -3.1741  -3.1740
    -3.1720  -3.1502  -3.1478  -3.1436  -3.1401  -3.1400  -3.1342  -3.1301
[...]
     atom    6 type  1   force =    -0.00002684   -0.00005551    0.00021180
     atom    7 type  1   force =     0.00005114    0.00004452    0.00023803
     atom    8 type  1   force =    -0.00004576    0.00001045    0.00018205
     atom    9 type  1   force =    -0.00055455    0.00033984    0.00025836
     atom   10 type  1   force =     0.00060267    0.00033082    0.00068105
     atom   11 type  1   force =     0.00003176   -0.00066909    0.00046898
     atom   12 type  1   force =    -0.00003795   -0.00000072    0.00015000
     atom   13 type  1   force =     0.00035844   -0.00018749    0.00081481
     atom   14 type  1   force =    -0.00031465   -0.00020021    0.00010584
     atom   15 type  1   force =     0.00003266    0.00038843    0.00046095
     atom   16 type  1   force =    -0.00003811   -0.00000030    0.00014287
     atom   17 type  2   force =     0.00030485   -0.00000024    0.00248991
     atom   18 type  2   force =    -0.00008926   -0.00005294    0.00010588
     atom   19 type  2   force =     0.00004326    0.00007636    0.00016904
     atom   20 type  2   force =    -0.00004850   -0.00002369    0.00004329
     atom   21 type  2   force =     0.00006452    0.00000022   -0.00040093
     atom   22 type  2   force =    -0.00006866    0.00001348   -0.00017598
     atom   23 type  2   force =    -0.00000292    0.00003777   -0.00027315
     atom   24 type  2   force =     0.00001987   -0.00005141   -0.00007867
     atom   25 type  2   force =     0.00167444   -0.00085043    0.00109884
     atom   26 type  2   force =     0.00040126    0.00011926    0.00040354
     atom   27 type  2   force =     0.00019815    0.00075468    0.00075880
     atom   28 type  2   force =    -0.00002346   -0.00000011    0.00006921
     atom   29 type  2   force =     0.00007089   -0.00005705   -0.00034228
     atom   30 type  2   force =    -0.00004676   -0.00001092   -0.00029950
     atom   31 type  2   force =    -0.00002792    0.00006789   -0.00032070
     atom   32 type  2   force =     0.00002391   -0.00000001   -0.00013719
     The non-local contrib.  to forces
     atom    1 type  1   force =    -0.00195495   -0.00001768   -0.00199677
     atom    2 type  1   force =    -0.00126009   -0.00062256    0.00153515
     atom    3 type  1   force =     0.00066745    0.00110997    0.00191397
     atom    4 type  1   force =    -0.00041478   -0.00049069    0.00115610
     atom    5 type  1   force =    -0.00003370    0.00000059   -0.00028388
     atom    6 type  1   force =     0.00003894    0.00011999    0.00012095
     atom    7 type  1   force =    -0.00010897   -0.00008607    0.00000997
     atom    8 type  1   force =     0.00009788   -0.00003469    0.00023282
     atom    9 type  1   force =     0.00135778   -0.00084775   -0.00024062
     atom   10 type  1   force =    -0.00113442   -0.00059278   -0.00027520
     atom   11 type  1   force =    -0.00010930    0.00143912   -0.00025698
     atom   12 type  1   force =     0.00009527    0.00000083    0.00021501
     atom   13 type  1   force =    -0.00027598    0.00009393   -0.00053674
     atom   14 type  1   force =     0.00031178    0.00024989    0.00109533
     atom   15 type  1   force =    -0.00011739   -0.00034170    0.00027536
     atom   16 type  1   force =     0.00009099   -0.00000214    0.00042548
     atom   17 type  2   force =     0.00207996    0.00000071    0.00705800
     atom   18 type  2   force =    -0.00041544    0.00003539    0.01387891
     atom   19 type  2   force =    -0.00005714    0.00020582    0.01417696
     atom   20 type  2   force =     0.00000278   -0.00024248    0.01358518
     atom   21 type  2   force =     0.00043922    0.00000120    0.01127751
     atom   22 type  2   force =    -0.00041331   -0.00000087    0.01224660
     atom   23 type  2   force =     0.00004767    0.00026508    0.01190673
     atom   24 type  2   force =     0.00004441   -0.00026551    0.01258507
     atom   25 type  2   force =    -0.00438999    0.00342541    0.01393342
     atom   26 type  2   force =    -0.00005110   -0.00093461    0.01701658
     atom   27 type  2   force =     0.00155539   -0.00249289    0.01547329
     atom   28 type  2   force =    -0.00001374    0.00000084    0.01319513
     atom   29 type  2   force =     0.00024689   -0.00020411    0.01162894
     atom   30 type  2   force =    -0.00016243   -0.00003155    0.01184172
     atom   31 type  2   force =    -0.00010727    0.00023597    0.01173624
     atom   32 type  2   force =     0.00010160   -0.00000041    0.01258525
     The ionic contribution  to forces
     atom    1 type  1   force =    -0.11713351   -0.00036436   -0.06653149
     atom    2 type  1   force =     0.06466734   -0.00000000    0.09930459
     atom    3 type  1   force =     0.00558496   -0.03411081    0.09930540
     atom    4 type  1   force =     0.00558496    0.03411081    0.09930540
     atom    5 type  1   force =    -0.00173169   -0.00000000    0.18730539
     atom    6 type  1   force =     0.00166168   -0.00000000    0.17982318
     atom    7 type  1   force =     0.00001671   -0.00094972    0.17982313
     atom    8 type  1   force =     0.00001671    0.00094972    0.17982313
     atom    9 type  1   force =    -0.02265819    0.00822601    0.16879973
     atom   10 type  1   force =     0.02844737    0.02133164    0.20036893
     atom   11 type  1   force =    -0.00845514   -0.02952065    0.18454232
     atom   12 type  1   force =     0.00596200   -0.00001864    0.16233160
     atom   13 type  1   force =     0.02816849   -0.02102182    0.20005209
     atom   14 type  1   force =    -0.02258185   -0.00822823    0.16909086
     atom   15 type  1   force =    -0.00828619    0.02928601    0.18461242
     atom   16 type  1   force =     0.00586798   -0.00001832    0.16245589
     atom   17 type  2   force =    -0.02324565   -0.00000000   -0.06716712
     atom   18 type  2   force =     0.00965908   -0.00000000   -0.15389575
     atom   19 type  2   force =     0.00058177   -0.00524075   -0.15391648
     atom   20 type  2   force =     0.00058177    0.00524075   -0.15391648
     atom   21 type  2   force =    -0.00354141   -0.00000000   -0.13059649
     atom   22 type  2   force =     0.00276118   -0.00000000   -0.14543292
     atom   23 type  2   force =     0.00009171   -0.00154121   -0.14542555
     atom   24 type  2   force =     0.00009171    0.00154121   -0.14542555
     atom   25 type  2   force =     0.06450508   -0.04963640   -0.16515580
     atom   26 type  2   force =    -0.00290587    0.01093235   -0.20669920
     atom   27 type  2   force =    -0.02165346    0.03906042   -0.18580435
     atom   28 type  2   force =     0.00792628   -0.00002811   -0.16807611
     atom   29 type  2   force =    -0.00081877    0.00023041   -0.14232751
     atom   30 type  2   force =     0.00086491    0.00074395   -0.14128311
     atom   31 type  2   force =    -0.00042167   -0.00097317   -0.14180626
     atom   32 type  2   force =     0.00039171   -0.00000110   -0.14348387
     The local contribution  to forces
     atom    1 type  1   force =     0.11541092    0.00037789    0.06238783
     atom    2 type  1   force =    -0.06237705    0.00090409   -0.10136874
     atom    3 type  1   force =    -0.00642495    0.03228756   -0.10191438
     atom    4 type  1   force =    -0.00489101   -0.03320654   -0.10082830
     atom    5 type  1   force =     0.00181179    0.00000357   -0.18663645
     atom    6 type  1   force =    -0.00174580   -0.00019068   -0.17985674
     atom    7 type  1   force =     0.00016018    0.00109654   -0.17968383
     atom    8 type  1   force =    -0.00017563   -0.00090970   -0.18000386
     atom    9 type  1   force =     0.02063827   -0.00698228   -0.16832931
     atom   10 type  1   force =    -0.02661120   -0.02035657   -0.19941297
     atom   11 type  1   force =     0.00859539    0.02729915   -0.18382583
     atom   12 type  1   force =    -0.00609166    0.00002267   -0.16245832
     atom   13 type  1   force =    -0.02747889    0.02073865   -0.19860928
     atom   14 type  1   force =     0.02189879    0.00773954   -0.17009609
     atom   15 type  1   force =     0.00846785   -0.02850313   -0.18440296
     atom   16 type  1   force =    -0.00602780    0.00000719   -0.16273009
     atom   17 type  2   force =     0.02153632   -0.00000022    0.06290065
     atom   18 type  2   force =    -0.00935076   -0.00008906    0.14055229
     atom   19 type  2   force =    -0.00048103    0.00512094    0.14035128
     atom   20 type  2   force =    -0.00063548   -0.00503169    0.14079236
     atom   21 type  2   force =     0.00318723    0.00000034    0.11925830
     atom   22 type  2   force =    -0.00243647    0.00001300    0.13338216
     atom   23 type  2   force =    -0.00013795    0.00132665    0.13360372
     atom   24 type  2   force =    -0.00011687   -0.00133974    0.13314622
     atom   25 type  2   force =    -0.05851193    0.04542767    0.15279381
     atom   26 type  2   force =     0.00335852   -0.00990287    0.19062851
     atom   27 type  2   force =     0.02034005   -0.03585414    0.17159610
     atom   28 type  2   force =    -0.00793706    0.00002607    0.15538129
     atom   29 type  2   force =     0.00065352   -0.00009096    0.13066469
     atom   30 type  2   force =    -0.00075686   -0.00072531    0.12945903
     atom   31 type  2   force =     0.00049765    0.00081515    0.13006235
     atom   32 type  2   force =    -0.00046639    0.00000104    0.13110668
     The core correction contribution to forces
     atom    1 type  1   force =     0.00009554   -0.00000022    0.00025227
     atom    2 type  1   force =    -0.00014071   -0.00005730    0.00014945
     atom    3 type  1   force =     0.00005244    0.00011122    0.00018187
     atom    4 type  1   force =    -0.00004740   -0.00005426    0.00011640
     atom    5 type  1   force =    -0.00000457    0.00000014   -0.00001088
     atom    6 type  1   force =     0.00000474    0.00001172    0.00003310
     atom    7 type  1   force =    -0.00001071   -0.00000909    0.00002571
     atom    8 type  1   force =     0.00000939   -0.00000279    0.00004094
     atom    9 type  1   force =     0.00011399   -0.00007272    0.00001213
     atom   10 type  1   force =    -0.00010598   -0.00005503   -0.00003128
     atom   11 type  1   force =    -0.00001135    0.00012734   -0.00000943
     atom   12 type  1   force =     0.00000957    0.00000034    0.00003831
     atom   13 type  1   force =    -0.00004257    0.00001888   -0.00004844
     atom   14 type  1   force =     0.00004414    0.00003108    0.00009074
     atom   15 type  1   force =    -0.00000975   -0.00005004    0.00002124
     atom   16 type  1   force =     0.00000791    0.00000000    0.00005237
     atom   17 type  2   force =    -0.00006247   -0.00000004   -0.00030134
     atom   18 type  2   force =     0.00001449   -0.00000208   -0.00042930
     atom   19 type  2   force =     0.00000266   -0.00000678   -0.00044057
     atom   20 type  2   force =    -0.00000087    0.00000892   -0.00041819
     atom   21 type  2   force =    -0.00001653   -0.00000005   -0.00033574
     atom   22 type  2   force =     0.00001575    0.00000003   -0.00036711
     atom   23 type  2   force =    -0.00000190   -0.00001014   -0.00035439
     atom   24 type  2   force =    -0.00000178    0.00001017   -0.00037976
     atom   25 type  2   force =     0.00007459   -0.00006746   -0.00044657
     atom   26 type  2   force =    -0.00000377    0.00002251   -0.00051067
     atom   27 type  2   force =    -0.00004251    0.00004431   -0.00047881
     atom   28 type  2   force =    -0.00000085   -0.00000003   -0.00040110
     atom   29 type  2   force =    -0.00000931    0.00000767   -0.00034369
     atom   30 type  2   force =     0.00000603    0.00000114   -0.00035210
     atom   31 type  2   force =     0.00000402   -0.00000884   -0.00034793
     atom   32 type  2   force =    -0.00000385    0.00000003   -0.00038041
     The Hubbard contrib.    to forces
     atom    1 type  1   force =     0.00000000    0.00000000    0.00000000
     atom    2 type  1   force =     0.00000000    0.00000000    0.00000000
     atom    3 type  1   force =     0.00000000    0.00000000    0.00000000
     atom    4 type  1   force =     0.00000000    0.00000000    0.00000000
     atom    5 type  1   force =     0.00000000    0.00000000    0.00000000
     atom    6 type  1   force =     0.00000000    0.00000000    0.00000000
     atom    7 type  1   force =     0.00000000    0.00000000    0.00000000
     atom    8 type  1   force =     0.00000000    0.00000000    0.00000000
     atom    9 type  1   force =     0.00000000    0.00000000    0.00000000
     atom   10 type  1   force =     0.00000000    0.00000000    0.00000000
     atom   11 type  1   force =     0.00000000    0.00000000    0.00000000
     atom   12 type  1   force =     0.00000000    0.00000000    0.00000000
     atom   13 type  1   force =     0.00000000    0.00000000    0.00000000
     atom   14 type  1   force =     0.00000000    0.00000000    0.00000000
     atom   15 type  1   force =     0.00000000    0.00000000    0.00000000
     atom   16 type  1   force =     0.00000000    0.00000000    0.00000000
     atom   17 type  2   force =     0.00000000    0.00000000    0.00000000
     atom   18 type  2   force =     0.00000000    0.00000000    0.00000000
     atom   19 type  2   force =     0.00000000    0.00000000    0.00000000
     atom   20 type  2   force =     0.00000000    0.00000000    0.00000000
     atom   21 type  2   force =     0.00000000    0.00000000    0.00000000
     atom   22 type  2   force =     0.00000000    0.00000000    0.00000000
     atom   23 type  2   force =     0.00000000    0.00000000    0.00000000
     atom   24 type  2   force =     0.00000000    0.00000000    0.00000000
     atom   25 type  2   force =     0.00000000    0.00000000    0.00000000
     atom   26 type  2   force =     0.00000000    0.00000000    0.00000000
     atom   27 type  2   force =     0.00000000    0.00000000    0.00000000
     atom   28 type  2   force =     0.00000000    0.00000000    0.00000000
     atom   29 type  2   force =     0.00000000    0.00000000    0.00000000
     atom   30 type  2   force =     0.00000000    0.00000000    0.00000000
     atom   31 type  2   force =     0.00000000    0.00000000    0.00000000
     atom   32 type  2   force =     0.00000000    0.00000000    0.00000000
     The SCF correction term to forces
     atom    1 type  1   force =    -0.00005544   -0.00002126   -0.00007307
     atom    2 type  1   force =     0.00005616    0.00001758   -0.00006056
     atom    3 type  1   force =    -0.00003463   -0.00003205   -0.00005170
     atom    4 type  1   force =     0.00003393    0.00003458   -0.00006228
     atom    5 type  1   force =    -0.00001368   -0.00000386    0.00008149
     atom    6 type  1   force =     0.00001356    0.00000346    0.00009164
     atom    7 type  1   force =    -0.00000611   -0.00000714    0.00006338
     atom    8 type  1   force =     0.00000586    0.00000791    0.00008935
     atom    9 type  1   force =    -0.00000645    0.00001657    0.00001677
     atom   10 type  1   force =     0.00000686    0.00000356    0.00003190
     atom   11 type  1   force =     0.00001212   -0.00001406    0.00001922
     atom   12 type  1   force =    -0.00001316   -0.00000592    0.00002373
     atom   13 type  1   force =    -0.00001265   -0.00001713   -0.00004249
     atom   14 type  1   force =     0.00001245    0.00000751   -0.00007466
     atom   15 type  1   force =    -0.00002191   -0.00000270   -0.00004477
     atom   16 type  1   force =     0.00002277    0.00001296   -0.00006046
     atom   17 type  2   force =    -0.00000334   -0.00000069    0.00000004
     atom   18 type  2   force =     0.00000334    0.00000281    0.00000007
     atom   19 type  2   force =    -0.00000304   -0.00000287   -0.00000182
     atom   20 type  2   force =     0.00000326    0.00000081    0.00000075
     atom   21 type  2   force =    -0.00000404   -0.00000127   -0.00000418
     atom   22 type  2   force =     0.00000415    0.00000132   -0.00000438
     atom   23 type  2   force =    -0.00000249   -0.00000260   -0.00000333
     atom   24 type  2   force =     0.00000235    0.00000245   -0.00000432
     atom   25 type  2   force =    -0.00000337    0.00000035   -0.00002569
     atom   26 type  2   force =     0.00000343    0.00000189   -0.00003135
     atom   27 type  2   force =    -0.00000137   -0.00000302   -0.00002709
     atom   28 type  2   force =     0.00000186    0.00000113   -0.00002967
     atom   29 type  2   force =    -0.00000148   -0.00000007    0.00003561
     atom   30 type  2   force =     0.00000154    0.00000085    0.00003530
     atom   31 type  2   force =    -0.00000069   -0.00000122    0.00003523
     atom   32 type  2   force =     0.00000080    0.00000044    0.00003548

     Total force =     0.008251     Total SCF correction =     0.000285

     Writing output data file ../tmp/GaN_exc1.save/
 
     init_run     :     79.55s CPU     80.31s WALL (       1 calls)
     electrons    :   4539.19s CPU   4562.25s WALL (       1 calls)
     forces       :     34.31s CPU     34.35s WALL (       1 calls)

     Called by init_run:
     wfcinit      :     76.15s CPU     76.83s WALL (       1 calls)
     wfcinit:atom :      1.09s CPU      1.11s WALL (      63 calls)
     wfcinit:wfcr :     69.26s CPU     69.49s WALL (      63 calls)
     potinit      :      0.92s CPU      0.93s WALL (       1 calls)
     hinit0       :      2.22s CPU      2.28s WALL (       1 calls)

     Called by electrons:
     c_bands      :   3993.59s CPU   4013.71s WALL (      27 calls)
     sum_band     :    541.35s CPU    543.46s WALL (      27 calls)
     v_of_rho     :      3.14s CPU      3.56s WALL (      28 calls)
     v_h          :      0.20s CPU      0.21s WALL (      28 calls)
     v_xc         :      3.05s CPU      3.47s WALL (      29 calls)
     mix_rho      :      1.08s CPU      1.47s WALL (      27 calls)

     Called by c_bands:
     init_us_2    :     63.53s CPU     63.58s WALL (    3528 calls)
     cegterg      :   3640.63s CPU   3660.29s WALL (    1701 calls)

     Called by sum_band:
     sum_band:wei :      0.00s CPU      0.00s WALL (      27 calls)
     sum_band:loo :    541.07s CPU    543.15s WALL (      27 calls)
     sum_band:buf :     13.28s CPU     13.68s WALL (    1701 calls)
     sum_band:ini :     30.68s CPU     30.70s WALL (    1701 calls)

     Called by *egterg:
     cdiaghg      :     67.88s CPU     68.11s WALL (    5672 calls)
     cegterg:over :    285.33s CPU    285.41s WALL (    3971 calls)
     cegterg:upda :    282.27s CPU    293.35s WALL (    3971 calls)
     cegterg:last :    268.12s CPU    268.16s WALL (    2907 calls)
     cdiaghg:chol :      4.41s CPU      4.45s WALL (    5672 calls)
     cdiaghg:inve :      1.62s CPU      1.63s WALL (    5672 calls)
     cdiaghg:para :     11.06s CPU     11.11s WALL (   11344 calls)
     h_psi        :   2653.62s CPU   2661.79s WALL (    5735 calls)
     g_psi        :     15.98s CPU     16.01s WALL (    3971 calls)

     Called by h_psi:
     h_psi:calbec :    346.66s CPU    346.78s WALL (    5735 calls)
     vloc_psi     :   1897.57s CPU   1904.80s WALL (    5735 calls)
     add_vuspsi   :    377.34s CPU    377.47s WALL (    5735 calls)

     General routines
     calbec       :    366.89s CPU    367.02s WALL (    5987 calls)
     fft          :      1.25s CPU      1.32s WALL (     290 calls)
     ffts         :      0.10s CPU      0.11s WALL (      27 calls)
     fftw         :   1796.62s CPU   1803.12s WALL ( 1443106 calls)
 
     Parallel routines
 
     PWSCF        :      1h17m CPU      1h18m WALL

 
   This run was terminated on:  21:28:20  28Mar2023            

=------------------------------------------------------------------------------=
   JOB DONE.
=------------------------------------------------------------------------------=
