
     Program PWSCF v.6.8 starts on 28Mar2023 at 21:28:21 

     This program is part of the open-source Quantum ESPRESSO suite
     for quantum simulation of materials; please cite
         "P. Giannozzi et al., J. Phys.:Condens. Matter 21 395502 (2009);
         "P. Giannozzi et al., J. Phys.:Condens. Matter 29 465901 (2017);
         "P. Giannozzi et al., J. Chem. Phys. 152 154105 (2020);
          URL http://www.quantum-espresso.org", 
     in publications or presentations arising from this work. More details at
     http://www.quantum-espresso.org/quote

     Parallel version (MPI & OpenMP), running on       6 processor cores
     Number of MPI processes:                 6
     Threads/MPI process:                     1

     MPI processes distributed on     1 nodes
     R & G space division:  proc/nbgrp/npool/nimage =       6
     162705 MiB available memory on the printing compute node when the environment starts
 
     Waiting for input...
     Reading input from standard input

     Current dimensions of program PWSCF are:
     Max number of different atomic species (ntypx) = 10
     Max number of k-points (npk) =  40000
     Max angular momentum in pseudopotentials (lmaxx) =  4

     Subspace diagonalization in iterative solution of the eigenvalue problem:
     one sub-group per band group will be used
     scalapack distributed-memory algorithm (size of sub-group:  2*  2 procs)

 
     Parallelization info
     --------------------
     sticks:   dense  smooth     PW     G-vecs:    dense   smooth      PW
     Min        1023    1023    271               105132   105132   14277
     Max        1025    1025    272               105135   105135   14280
     Sum        6145    6145   1627               630803   630803   85669
 
     Using Slab Decomposition
 


     bravais-lattice index     =            0
     lattice parameter (alat)  =      12.1668  a.u.
     unit-cell volume          =    2540.8240 (a.u.)^3
     number of atoms/cell      =           32
     number of atomic types    =            2
     number of electrons       =       288.00
     number of Kohn-Sham states=          144
     kinetic-energy cutoff     =     150.0000  Ry
     charge density cutoff     =     600.0000  Ry
     scf convergence threshold =      1.0E-08
     mixing beta               =       0.7000
     number of iterations used =            8  plain     mixing
     Exchange-correlation= PBE
                           (   1   4   3   4   0   0   0)

     celldm(1)=  12.166840  celldm(2)=   0.000000  celldm(3)=   0.000000
     celldm(4)=   0.000000  celldm(5)=   0.000000  celldm(6)=   0.000000

     crystal axes: (cart. coord. in units of alat)
               a(1) = (   1.000000   0.000000   0.000000 )  
               a(2) = (  -0.500000   0.866025   0.000000 )  
               a(3) = (   0.000000   0.000000   1.628961 )  

     reciprocal axes: (cart. coord. in units 2 pi/alat)
               b(1) = (  1.000000  0.577350  0.000000 )  
               b(2) = (  0.000000  1.154701  0.000000 )  
               b(3) = (  0.000000  0.000000  0.613888 )  


     PseudoPot. # 1 for Ga read from file:
     ../pseudo/Ga_ONCV_PBE_sr.upf
     MD5 check sum: e3654b1fbeb096be7359f640ef9d98d7
     Pseudo is Norm-conserving + core correction, Zval = 13.0
     Generated using ONCVPSP code by D. R. Hamann
     Using radial grid of 1902 points,  6 beta functions with: 
                l(1) =   0
                l(2) =   0
                l(3) =   1
                l(4) =   1
                l(5) =   2
                l(6) =   2

     PseudoPot. # 2 for N  read from file:
     ../pseudo/N_ONCV_PBE_sr.upf
     MD5 check sum: 18c6af81dac9c5a2d6d52ed11cf7bfee
     Pseudo is Norm-conserving + core correction, Zval =  5.0
     Generated using ONCVPSP code by D. R. Hamann
     Using radial grid of 1058 points,  4 beta functions with: 
                l(1) =   0
                l(2) =   0
                l(3) =   1
                l(4) =   1

     atomic species   valence    mass     pseudopotential
        Ga            13.00    69.72300     Ga( 1.00)
        N              5.00    14.00670     N ( 1.00)

     No symmetry found


                                    s                        frac. trans.

      isym =  1     identity                                     

 cryst.   s( 1) = (     1          0          0      )
                  (     0          1          0      )
                  (     0          0          1      )

 cart.    s( 1) = (  1.0000000  0.0000000  0.0000000 )
                  (  0.0000000  1.0000000  0.0000000 )
                  (  0.0000000  0.0000000  1.0000000 )


   Cartesian axes

     site n.     atom                  positions (alat units)
         1           Ga  tau(   1) = (   0.2491400   0.1443376   0.4051234  )
         2           Ga  tau(   2) = (   0.7500000   0.1443376   0.4065243  )
         3           Ga  tau(   3) = (   0.0000000   0.5773503   0.4065243  )
         4           Ga  tau(   4) = (   0.5000000   0.5773503   0.4065243  )
         5           Ga  tau(   5) = (   0.2500000   0.1443376   1.2210046  )
         6           Ga  tau(   6) = (   0.7500000   0.1443376   1.2210046  )
         7           Ga  tau(   7) = (   0.0000000   0.5773503   1.2210046  )
         8           Ga  tau(   8) = (   0.5000000   0.5773503   1.2210046  )
         9           Ga  tau(   9) = (  -0.0000000   0.2886751   0.8137645  )
        10           Ga  tau(  10) = (   0.5000000   0.2886751   0.8137645  )
        11           Ga  tau(  11) = (  -0.2500000   0.7216878   0.8137645  )
        12           Ga  tau(  12) = (   0.2500000   0.7216878   0.8137645  )
        13           Ga  tau(  13) = (  -0.0000000   0.2886751   1.6282448  )
        14           Ga  tau(  14) = (   0.5000000   0.2886751   1.6282448  )
        15           Ga  tau(  15) = (  -0.2500000   0.7216878   1.6282448  )
        16           Ga  tau(  16) = (   0.2500000   0.7216878   1.6282448  )
        17           N   tau(  17) = (   0.2500000   0.1443376   0.7133862  )
        18           N   tau(  18) = (   0.7500000   0.1443376   0.7133862  )
        19           N   tau(  19) = (   0.0000000   0.5773503   0.7133862  )
        20           N   tau(  20) = (   0.5000000   0.5773503   0.7133862  )
        21           N   tau(  21) = (   0.2500000   0.1443376   1.5278665  )
        22           N   tau(  22) = (   0.7500000   0.1443376   1.5278665  )
        23           N   tau(  23) = (   0.0000000   0.5773503   1.5278665  )
        24           N   tau(  24) = (   0.5000000   0.5773503   1.5278665  )
        25           N   tau(  25) = (  -0.0000000   0.2886751   0.3061460  )
        26           N   tau(  26) = (   0.5000000   0.2886751   0.3061460  )
        27           N   tau(  27) = (  -0.2500000   0.7216878   0.3061460  )
        28           N   tau(  28) = (   0.2500000   0.7216878   0.3061460  )
        29           N   tau(  29) = (  -0.0000000   0.2886751   1.1206263  )
        30           N   tau(  30) = (   0.5000000   0.2886751   1.1206263  )
        31           N   tau(  31) = (  -0.2500000   0.7216878   1.1206263  )
        32           N   tau(  32) = (   0.2500000   0.7216878   1.1206263  )

   Crystallographic axes

     site n.     atom                  positions (cryst. coord.)
         1           Ga  tau(   1) = (  0.3324733  0.1666667  0.2487005  )
         2           Ga  tau(   2) = (  0.8333333  0.1666667  0.2495605  )
         3           Ga  tau(   3) = (  0.3333333  0.6666667  0.2495605  )
         4           Ga  tau(   4) = (  0.8333333  0.6666667  0.2495605  )
         5           Ga  tau(   5) = (  0.3333333  0.1666667  0.7495605  )
         6           Ga  tau(   6) = (  0.8333333  0.1666667  0.7495605  )
         7           Ga  tau(   7) = (  0.3333333  0.6666667  0.7495605  )
         8           Ga  tau(   8) = (  0.8333333  0.6666667  0.7495605  )
         9           Ga  tau(   9) = (  0.1666667  0.3333333  0.4995605  )
        10           Ga  tau(  10) = (  0.6666667  0.3333333  0.4995605  )
        11           Ga  tau(  11) = (  0.1666667  0.8333333  0.4995605  )
        12           Ga  tau(  12) = (  0.6666667  0.8333333  0.4995605  )
        13           Ga  tau(  13) = (  0.1666667  0.3333333  0.9995605  )
        14           Ga  tau(  14) = (  0.6666667  0.3333333  0.9995605  )
        15           Ga  tau(  15) = (  0.1666667  0.8333333  0.9995605  )
        16           Ga  tau(  16) = (  0.6666667  0.8333333  0.9995605  )
        17           N   tau(  17) = (  0.3333333  0.1666667  0.4379395  )
        18           N   tau(  18) = (  0.8333333  0.1666667  0.4379395  )
        19           N   tau(  19) = (  0.3333333  0.6666667  0.4379395  )
        20           N   tau(  20) = (  0.8333333  0.6666667  0.4379395  )
        21           N   tau(  21) = (  0.3333333  0.1666667  0.9379395  )
        22           N   tau(  22) = (  0.8333333  0.1666667  0.9379395  )
        23           N   tau(  23) = (  0.3333333  0.6666667  0.9379395  )
        24           N   tau(  24) = (  0.8333333  0.6666667  0.9379395  )
        25           N   tau(  25) = (  0.1666667  0.3333333  0.1879395  )
        26           N   tau(  26) = (  0.6666667  0.3333333  0.1879395  )
        27           N   tau(  27) = (  0.1666667  0.8333333  0.1879395  )
        28           N   tau(  28) = (  0.6666667  0.8333333  0.1879395  )
        29           N   tau(  29) = (  0.1666667  0.3333333  0.6879395  )
        30           N   tau(  30) = (  0.6666667  0.3333333  0.6879395  )
        31           N   tau(  31) = (  0.1666667  0.8333333  0.6879395  )
        32           N   tau(  32) = (  0.6666667  0.8333333  0.6879395  )

     number of k points=    63
                       cart. coord. in units 2pi/alat
        k(    1) = (   0.0000000   0.0000000   0.0000000), wk =   0.0160000
        k(    2) = (   0.0000000   0.0000000   0.1227777), wk =   0.0320000
        k(    3) = (   0.0000000   0.0000000   0.2455553), wk =   0.0320000
        k(    4) = (   0.0000000   0.2309401   0.0000000), wk =   0.0320000
        k(    5) = (   0.0000000   0.2309401   0.1227777), wk =   0.0320000
        k(    6) = (   0.0000000   0.2309401   0.2455553), wk =   0.0320000
        k(    7) = (   0.0000000   0.4618802   0.0000000), wk =   0.0320000
        k(    8) = (   0.0000000   0.4618802   0.1227777), wk =   0.0320000
        k(    9) = (   0.0000000   0.4618802   0.2455553), wk =   0.0320000
        k(   10) = (   0.2000000   0.3464102   0.0000000), wk =   0.0320000
        k(   11) = (   0.2000000   0.3464102   0.1227777), wk =   0.0320000
        k(   12) = (   0.2000000   0.3464102   0.2455553), wk =   0.0320000
        k(   13) = (   0.2000000   0.5773503   0.0000000), wk =   0.0320000
        k(   14) = (   0.2000000   0.5773503   0.1227777), wk =   0.0320000
        k(   15) = (   0.2000000   0.5773503   0.2455553), wk =   0.0320000
        k(   16) = (  -0.2000000   0.1154701   0.0000000), wk =   0.0320000
        k(   17) = (   0.2000000   0.1154701   0.0000000), wk =   0.0320000
        k(   18) = (   0.0000000  -0.2309401   0.1227777), wk =   0.0320000
        k(   19) = (  -0.2000000   0.1154701   0.1227777), wk =   0.0320000
        k(   20) = (   0.2000000   0.1154701   0.1227777), wk =   0.0320000
        k(   21) = (  -0.2000000  -0.1154701   0.1227777), wk =   0.0320000
        k(   22) = (   0.2000000  -0.1154701   0.1227777), wk =   0.0320000
        k(   23) = (   0.0000000  -0.2309401   0.2455553), wk =   0.0320000
        k(   24) = (  -0.2000000   0.1154701   0.2455553), wk =   0.0320000
        k(   25) = (   0.2000000   0.1154701   0.2455553), wk =   0.0320000
        k(   26) = (  -0.2000000  -0.1154701   0.2455553), wk =   0.0320000
        k(   27) = (   0.2000000  -0.1154701   0.2455553), wk =   0.0320000
        k(   28) = (  -0.4000000   0.2309401   0.0000000), wk =   0.0320000
        k(   29) = (   0.4000000   0.2309401   0.0000000), wk =   0.0320000
        k(   30) = (   0.0000000  -0.4618802   0.1227777), wk =   0.0320000
        k(   31) = (  -0.4000000   0.2309401   0.1227777), wk =   0.0320000
        k(   32) = (   0.4000000   0.2309401   0.1227777), wk =   0.0320000
        k(   33) = (  -0.4000000  -0.2309401   0.1227777), wk =   0.0320000
        k(   34) = (   0.4000000  -0.2309401   0.1227777), wk =   0.0320000
        k(   35) = (   0.0000000  -0.4618802   0.2455553), wk =   0.0320000
        k(   36) = (  -0.4000000   0.2309401   0.2455553), wk =   0.0320000
        k(   37) = (   0.4000000   0.2309401   0.2455553), wk =   0.0320000
        k(   38) = (  -0.4000000  -0.2309401   0.2455553), wk =   0.0320000
        k(   39) = (   0.4000000  -0.2309401   0.2455553), wk =   0.0320000
        k(   40) = (  -0.2000000   0.3464102   0.0000000), wk =   0.0320000
        k(   41) = (   0.4000000   0.0000000   0.0000000), wk =   0.0320000
        k(   42) = (  -0.2000000  -0.3464102   0.1227777), wk =   0.0320000
        k(   43) = (  -0.2000000   0.3464102  -0.1227777), wk =   0.0320000
        k(   44) = (   0.2000000  -0.3464102  -0.1227777), wk =   0.0320000
        k(   45) = (   0.4000000   0.0000000   0.1227777), wk =   0.0320000
        k(   46) = (  -0.4000000   0.0000000   0.1227777), wk =   0.0320000
        k(   47) = (  -0.2000000  -0.3464102   0.2455553), wk =   0.0320000
        k(   48) = (  -0.2000000   0.3464102  -0.2455553), wk =   0.0320000
        k(   49) = (   0.2000000  -0.3464102  -0.2455553), wk =   0.0320000
        k(   50) = (   0.4000000   0.0000000   0.2455553), wk =   0.0320000
        k(   51) = (  -0.4000000   0.0000000   0.2455553), wk =   0.0320000
        k(   52) = (  -0.4000000   0.4618802   0.0000000), wk =   0.0320000
        k(   53) = (   0.6000000   0.1154701   0.0000000), wk =   0.0320000
        k(   54) = (  -0.2000000  -0.5773503   0.1227777), wk =   0.0320000
        k(   55) = (  -0.4000000   0.4618802   0.1227777), wk =   0.0320000
        k(   56) = (   0.6000000   0.1154701   0.1227777), wk =   0.0320000
        k(   57) = (  -0.6000000  -0.1154701   0.1227777), wk =   0.0320000
        k(   58) = (   0.4000000  -0.4618802   0.1227777), wk =   0.0320000
        k(   59) = (  -0.2000000  -0.5773503   0.2455553), wk =   0.0320000
        k(   60) = (  -0.4000000   0.4618802   0.2455553), wk =   0.0320000
        k(   61) = (   0.6000000   0.1154701   0.2455553), wk =   0.0320000
        k(   62) = (  -0.6000000  -0.1154701   0.2455553), wk =   0.0320000
        k(   63) = (   0.4000000  -0.4618802   0.2455553), wk =   0.0320000

                       cryst. coord.
        k(    1) = (   0.0000000   0.0000000   0.0000000), wk =   0.0160000
        k(    2) = (   0.0000000   0.0000000   0.2000000), wk =   0.0320000
        k(    3) = (   0.0000000   0.0000000   0.4000000), wk =   0.0320000
        k(    4) = (   0.0000000   0.2000000   0.0000000), wk =   0.0320000
        k(    5) = (   0.0000000   0.2000000   0.2000000), wk =   0.0320000
        k(    6) = (   0.0000000   0.2000000   0.4000000), wk =   0.0320000
        k(    7) = (   0.0000000   0.4000000   0.0000000), wk =   0.0320000
        k(    8) = (   0.0000000   0.4000000   0.2000000), wk =   0.0320000
        k(    9) = (   0.0000000   0.4000000   0.4000000), wk =   0.0320000
        k(   10) = (   0.2000000   0.2000000   0.0000000), wk =   0.0320000
        k(   11) = (   0.2000000   0.2000000   0.2000000), wk =   0.0320000
        k(   12) = (   0.2000000   0.2000000   0.4000000), wk =   0.0320000
        k(   13) = (   0.2000000   0.4000000   0.0000000), wk =   0.0320000
        k(   14) = (   0.2000000   0.4000000   0.2000000), wk =   0.0320000
        k(   15) = (   0.2000000   0.4000000   0.4000000), wk =   0.0320000
        k(   16) = (  -0.2000000   0.2000000   0.0000000), wk =   0.0320000
        k(   17) = (   0.2000000   0.0000000   0.0000000), wk =   0.0320000
        k(   18) = (   0.0000000  -0.2000000   0.2000000), wk =   0.0320000
        k(   19) = (  -0.2000000   0.2000000   0.2000000), wk =   0.0320000
        k(   20) = (   0.2000000   0.0000000   0.2000000), wk =   0.0320000
        k(   21) = (  -0.2000000   0.0000000   0.2000000), wk =   0.0320000
        k(   22) = (   0.2000000  -0.2000000   0.2000000), wk =   0.0320000
        k(   23) = (   0.0000000  -0.2000000   0.4000000), wk =   0.0320000
        k(   24) = (  -0.2000000   0.2000000   0.4000000), wk =   0.0320000
        k(   25) = (   0.2000000   0.0000000   0.4000000), wk =   0.0320000
        k(   26) = (  -0.2000000   0.0000000   0.4000000), wk =   0.0320000
        k(   27) = (   0.2000000  -0.2000000   0.4000000), wk =   0.0320000
        k(   28) = (  -0.4000000   0.4000000   0.0000000), wk =   0.0320000
        k(   29) = (   0.4000000   0.0000000   0.0000000), wk =   0.0320000
        k(   30) = (   0.0000000  -0.4000000   0.2000000), wk =   0.0320000
        k(   31) = (  -0.4000000   0.4000000   0.2000000), wk =   0.0320000
        k(   32) = (   0.4000000   0.0000000   0.2000000), wk =   0.0320000
        k(   33) = (  -0.4000000   0.0000000   0.2000000), wk =   0.0320000
        k(   34) = (   0.4000000  -0.4000000   0.2000000), wk =   0.0320000
        k(   35) = (   0.0000000  -0.4000000   0.4000000), wk =   0.0320000
        k(   36) = (  -0.4000000   0.4000000   0.4000000), wk =   0.0320000
        k(   37) = (   0.4000000   0.0000000   0.4000000), wk =   0.0320000
        k(   38) = (  -0.4000000   0.0000000   0.4000000), wk =   0.0320000
        k(   39) = (   0.4000000  -0.4000000   0.4000000), wk =   0.0320000
        k(   40) = (  -0.2000000   0.4000000   0.0000000), wk =   0.0320000
        k(   41) = (   0.4000000  -0.2000000   0.0000000), wk =   0.0320000
        k(   42) = (  -0.2000000  -0.2000000   0.2000000), wk =   0.0320000
        k(   43) = (  -0.2000000   0.4000000  -0.2000000), wk =   0.0320000
        k(   44) = (   0.2000000  -0.4000000  -0.2000000), wk =   0.0320000
        k(   45) = (   0.4000000  -0.2000000   0.2000000), wk =   0.0320000
        k(   46) = (  -0.4000000   0.2000000   0.2000000), wk =   0.0320000
        k(   47) = (  -0.2000000  -0.2000000   0.4000000), wk =   0.0320000
        k(   48) = (  -0.2000000   0.4000000  -0.4000000), wk =   0.0320000
        k(   49) = (   0.2000000  -0.4000000  -0.4000000), wk =   0.0320000
        k(   50) = (   0.4000000  -0.2000000   0.4000000), wk =   0.0320000
        k(   51) = (  -0.4000000   0.2000000   0.4000000), wk =   0.0320000
        k(   52) = (  -0.4000000   0.6000000   0.0000000), wk =   0.0320000
        k(   53) = (   0.6000000  -0.2000000   0.0000000), wk =   0.0320000
        k(   54) = (  -0.2000000  -0.4000000   0.2000000), wk =   0.0320000
        k(   55) = (  -0.4000000   0.6000000   0.2000000), wk =   0.0320000
        k(   56) = (   0.6000000  -0.2000000   0.2000000), wk =   0.0320000
        k(   57) = (  -0.6000000   0.2000000   0.2000000), wk =   0.0320000
        k(   58) = (   0.4000000  -0.6000000   0.2000000), wk =   0.0320000
        k(   59) = (  -0.2000000  -0.4000000   0.4000000), wk =   0.0320000
        k(   60) = (  -0.4000000   0.6000000   0.4000000), wk =   0.0320000
        k(   61) = (   0.6000000  -0.2000000   0.4000000), wk =   0.0320000
        k(   62) = (  -0.6000000   0.2000000   0.4000000), wk =   0.0320000
        k(   63) = (   0.4000000  -0.6000000   0.4000000), wk =   0.0320000

     Dense  grid:   630803 G-vectors     FFT dimensions: (  96,  96, 160)

     Dynamical RAM for                 wfc:      28.87 MB

     Dynamical RAM for     wfc (w. buffer):    1847.39 MB

     Dynamical RAM for           str. fact:       3.21 MB

     Dynamical RAM for           local pot:       0.00 MB

     Dynamical RAM for          nlocal pot:      83.39 MB

     Dynamical RAM for                qrad:       3.93 MB

     Dynamical RAM for          rho,v,vnew:      10.51 MB

     Dynamical RAM for               rhoin:       3.50 MB

     Dynamical RAM for            rho*nmix:      25.67 MB

     Dynamical RAM for           G-vectors:       6.82 MB

     Dynamical RAM for          h,s,v(r/c):       0.95 MB

     Dynamical RAM for          <psi|beta>:       0.91 MB

     Dynamical RAM for                 psi:      57.73 MB

     Dynamical RAM for                hpsi:      57.73 MB

     Dynamical RAM for      wfcinit/wfcrot:      84.38 MB

     Estimated static dynamical RAM per process >       1.93 GB

     Estimated max dynamical RAM per process >       2.07 GB

     Estimated total dynamical RAM >      12.40 GB

     Initial potential from superposition of free atoms

     starting charge  287.95708, renormalised to  288.00000
     Starting wfcs are  208 randomized atomic wfcs

     total cpu time spent up to now is       81.0 secs

     Self-consistent Calculation

     iteration #  1     ecut=   150.00 Ry     beta= 0.70
     Davidson diagonalization with overlap

---- Real-time Memory Report at c_bands before calling an iterative solver
          2214 MiB given to the printing process from OS
             0 MiB allocation reported by mallinfo(arena+hblkhd)
        149916 MiB available memory on the node where the printing process lives
------------------
     ethr =  1.00E-02,  avg # of iterations =  2.0

     total cpu time spent up to now is      265.8 secs

     total energy              =   -2776.29261244 Ry
     estimated scf accuracy    <       8.27580350 Ry

     iteration #  2     ecut=   150.00 Ry     beta= 0.70
     Davidson diagonalization with overlap

---- Real-time Memory Report at c_bands before calling an iterative solver
          2280 MiB given to the printing process from OS
             0 MiB allocation reported by mallinfo(arena+hblkhd)
        150177 MiB available memory on the node where the printing process lives
------------------
     ethr =  2.87E-03,  avg # of iterations =  3.0

     total cpu time spent up to now is      463.6 secs

     total energy              =   -2779.02753140 Ry
     estimated scf accuracy    <       7.32101721 Ry

     iteration #  3     ecut=   150.00 Ry     beta= 0.70
     Davidson diagonalization with overlap

---- Real-time Memory Report at c_bands before calling an iterative solver
          2300 MiB given to the printing process from OS
             0 MiB allocation reported by mallinfo(arena+hblkhd)
        150067 MiB available memory on the node where the printing process lives
------------------
     ethr =  2.54E-03,  avg # of iterations =  2.0

     negative rho (up, down):  4.581E-06 0.000E+00

     total cpu time spent up to now is      639.8 secs

     total energy              =   -2779.90168028 Ry
     estimated scf accuracy    <       0.24660398 Ry

     iteration #  4     ecut=   150.00 Ry     beta= 0.70
     Davidson diagonalization with overlap

---- Real-time Memory Report at c_bands before calling an iterative solver
          2305 MiB given to the printing process from OS
             0 MiB allocation reported by mallinfo(arena+hblkhd)
        150025 MiB available memory on the node where the printing process lives
------------------
     ethr =  8.56E-05,  avg # of iterations =  5.2

     negative rho (up, down):  7.644E-07 0.000E+00

     total cpu time spent up to now is      909.8 secs

     total energy              =   -2780.15303827 Ry
     estimated scf accuracy    <       0.79767077 Ry

     iteration #  5     ecut=   150.00 Ry     beta= 0.70
     Davidson diagonalization with overlap

---- Real-time Memory Report at c_bands before calling an iterative solver
          2335 MiB given to the printing process from OS
             0 MiB allocation reported by mallinfo(arena+hblkhd)
        149804 MiB available memory on the node where the printing process lives
------------------
     ethr =  8.56E-05,  avg # of iterations =  2.8

     negative rho (up, down):  4.552E-07 0.000E+00

     total cpu time spent up to now is     1091.0 secs

     total energy              =   -2780.18223035 Ry
     estimated scf accuracy    <       0.18765625 Ry

     iteration #  6     ecut=   150.00 Ry     beta= 0.70
     Davidson diagonalization with overlap

---- Real-time Memory Report at c_bands before calling an iterative solver
          2340 MiB given to the printing process from OS
             0 MiB allocation reported by mallinfo(arena+hblkhd)
        149758 MiB available memory on the node where the printing process lives
------------------
     ethr =  6.52E-05,  avg # of iterations =  1.0

     negative rho (up, down):  3.472E-07 0.000E+00

     total cpu time spent up to now is     1228.6 secs

     total energy              =   -2780.18269987 Ry
     estimated scf accuracy    <       0.11899488 Ry

     iteration #  7     ecut=   150.00 Ry     beta= 0.70
     Davidson diagonalization with overlap

---- Real-time Memory Report at c_bands before calling an iterative solver
          2343 MiB given to the printing process from OS
             0 MiB allocation reported by mallinfo(arena+hblkhd)
        149723 MiB available memory on the node where the printing process lives
------------------
     ethr =  4.13E-05,  avg # of iterations =  1.0

     negative rho (up, down):  3.466E-07 0.000E+00

     total cpu time spent up to now is     1367.4 secs

     total energy              =   -2780.18451409 Ry
     estimated scf accuracy    <       0.10709180 Ry

     iteration #  8     ecut=   150.00 Ry     beta= 0.70
     Davidson diagonalization with overlap

---- Real-time Memory Report at c_bands before calling an iterative solver
          2346 MiB given to the printing process from OS
             0 MiB allocation reported by mallinfo(arena+hblkhd)
        149693 MiB available memory on the node where the printing process lives
------------------
     ethr =  3.72E-05,  avg # of iterations =  1.0

     total cpu time spent up to now is     1505.1 secs

     total energy              =   -2780.18773845 Ry
     estimated scf accuracy    <       0.09597763 Ry

     iteration #  9     ecut=   150.00 Ry     beta= 0.70
     Davidson diagonalization with overlap

---- Real-time Memory Report at c_bands before calling an iterative solver
          2349 MiB given to the printing process from OS
             0 MiB allocation reported by mallinfo(arena+hblkhd)
        149665 MiB available memory on the node where the printing process lives
------------------
     ethr =  3.33E-05,  avg # of iterations =  1.0

     total cpu time spent up to now is     1643.8 secs

     total energy              =   -2780.19003783 Ry
     estimated scf accuracy    <       0.09891982 Ry

     iteration # 10     ecut=   150.00 Ry     beta= 0.70
     Davidson diagonalization with overlap

---- Real-time Memory Report at c_bands before calling an iterative solver
          2353 MiB given to the printing process from OS
             0 MiB allocation reported by mallinfo(arena+hblkhd)
        149627 MiB available memory on the node where the printing process lives
------------------
     ethr =  3.33E-05,  avg # of iterations =  1.0

     total cpu time spent up to now is     1781.5 secs

     total energy              =   -2780.18026264 Ry
     estimated scf accuracy    <       0.10089012 Ry

     iteration # 11     ecut=   150.00 Ry     beta= 0.70
     Davidson diagonalization with overlap

---- Real-time Memory Report at c_bands before calling an iterative solver
          2356 MiB given to the printing process from OS
             0 MiB allocation reported by mallinfo(arena+hblkhd)
        149623 MiB available memory on the node where the printing process lives
------------------
     ethr =  3.33E-05,  avg # of iterations =  1.0

     total cpu time spent up to now is     1920.2 secs

     total energy              =   -2780.17792866 Ry
     estimated scf accuracy    <       0.07103795 Ry

     iteration # 12     ecut=   150.00 Ry     beta= 0.70
     Davidson diagonalization with overlap

---- Real-time Memory Report at c_bands before calling an iterative solver
          2356 MiB given to the printing process from OS
             0 MiB allocation reported by mallinfo(arena+hblkhd)
        149634 MiB available memory on the node where the printing process lives
------------------
     ethr =  2.47E-05,  avg # of iterations =  1.0

     total cpu time spent up to now is     2057.8 secs

     total energy              =   -2780.17543113 Ry
     estimated scf accuracy    <       0.06204190 Ry

     iteration # 13     ecut=   150.00 Ry     beta= 0.70
     Davidson diagonalization with overlap

---- Real-time Memory Report at c_bands before calling an iterative solver
          2356 MiB given to the printing process from OS
             0 MiB allocation reported by mallinfo(arena+hblkhd)
        149626 MiB available memory on the node where the printing process lives
------------------
     ethr =  2.15E-05,  avg # of iterations =  1.0

     total cpu time spent up to now is     2196.5 secs

     total energy              =   -2780.17149597 Ry
     estimated scf accuracy    <       0.05226637 Ry

     iteration # 14     ecut=   150.00 Ry     beta= 0.70
     Davidson diagonalization with overlap

---- Real-time Memory Report at c_bands before calling an iterative solver
          2356 MiB given to the printing process from OS
             0 MiB allocation reported by mallinfo(arena+hblkhd)
        149606 MiB available memory on the node where the printing process lives
------------------
     ethr =  1.81E-05,  avg # of iterations =  1.0

     total cpu time spent up to now is     2334.2 secs

     total energy              =   -2780.17169724 Ry
     estimated scf accuracy    <       0.03908187 Ry

     iteration # 15     ecut=   150.00 Ry     beta= 0.70
     Davidson diagonalization with overlap

---- Real-time Memory Report at c_bands before calling an iterative solver
          2356 MiB given to the printing process from OS
             0 MiB allocation reported by mallinfo(arena+hblkhd)
        149588 MiB available memory on the node where the printing process lives
------------------
     ethr =  1.36E-05,  avg # of iterations =  1.0

     total cpu time spent up to now is     2472.9 secs

     total energy              =   -2780.16476988 Ry
     estimated scf accuracy    <       0.03769819 Ry

     iteration # 16     ecut=   150.00 Ry     beta= 0.70
     Davidson diagonalization with overlap

---- Real-time Memory Report at c_bands before calling an iterative solver
          2356 MiB given to the printing process from OS
             0 MiB allocation reported by mallinfo(arena+hblkhd)
        149569 MiB available memory on the node where the printing process lives
------------------
     ethr =  1.31E-05,  avg # of iterations =  1.0

     total cpu time spent up to now is     2610.9 secs

     total energy              =   -2780.15499953 Ry
     estimated scf accuracy    <       0.01679054 Ry

     iteration # 17     ecut=   150.00 Ry     beta= 0.70
     Davidson diagonalization with overlap

---- Real-time Memory Report at c_bands before calling an iterative solver
          2356 MiB given to the printing process from OS
             0 MiB allocation reported by mallinfo(arena+hblkhd)
        149543 MiB available memory on the node where the printing process lives
------------------
     ethr =  5.83E-06,  avg # of iterations =  3.7

     total cpu time spent up to now is     2809.9 secs

     total energy              =   -2780.16142403 Ry
     estimated scf accuracy    <       0.00486541 Ry

     iteration # 18     ecut=   150.00 Ry     beta= 0.70
     Davidson diagonalization with overlap

---- Real-time Memory Report at c_bands before calling an iterative solver
          2356 MiB given to the printing process from OS
             0 MiB allocation reported by mallinfo(arena+hblkhd)
        149477 MiB available memory on the node where the printing process lives
------------------
     ethr =  1.69E-06,  avg # of iterations =  2.0

     total cpu time spent up to now is     2983.6 secs

     total energy              =   -2780.16198798 Ry
     estimated scf accuracy    <       0.00023234 Ry

     iteration # 19     ecut=   150.00 Ry     beta= 0.70
     Davidson diagonalization with overlap

---- Real-time Memory Report at c_bands before calling an iterative solver
          2356 MiB given to the printing process from OS
             0 MiB allocation reported by mallinfo(arena+hblkhd)
        149429 MiB available memory on the node where the printing process lives
------------------
     ethr =  8.07E-08,  avg # of iterations =  4.0

     total cpu time spent up to now is     3209.2 secs

     total energy              =   -2780.16207829 Ry
     estimated scf accuracy    <       0.00002119 Ry

     iteration # 20     ecut=   150.00 Ry     beta= 0.70
     Davidson diagonalization with overlap

---- Real-time Memory Report at c_bands before calling an iterative solver
          2356 MiB given to the printing process from OS
             0 MiB allocation reported by mallinfo(arena+hblkhd)
        149321 MiB available memory on the node where the printing process lives
------------------
     ethr =  7.36E-09,  avg # of iterations =  2.0

     total cpu time spent up to now is     3365.6 secs

     total energy              =   -2780.16207776 Ry
     estimated scf accuracy    <       0.00001343 Ry

     iteration # 21     ecut=   150.00 Ry     beta= 0.70
     Davidson diagonalization with overlap

---- Real-time Memory Report at c_bands before calling an iterative solver
          2358 MiB given to the printing process from OS
             0 MiB allocation reported by mallinfo(arena+hblkhd)
        149283 MiB available memory on the node where the printing process lives
------------------
     ethr =  4.66E-09,  avg # of iterations =  2.2

     total cpu time spent up to now is     3522.7 secs

     total energy              =   -2780.16207771 Ry
     estimated scf accuracy    <       0.00000621 Ry

     iteration # 22     ecut=   150.00 Ry     beta= 0.70
     Davidson diagonalization with overlap

---- Real-time Memory Report at c_bands before calling an iterative solver
          2358 MiB given to the printing process from OS
             0 MiB allocation reported by mallinfo(arena+hblkhd)
        149259 MiB available memory on the node where the printing process lives
------------------
     ethr =  2.16E-09,  avg # of iterations =  4.1

     total cpu time spent up to now is     3716.9 secs

     total energy              =   -2780.16208330 Ry
     estimated scf accuracy    <       0.00000522 Ry

     iteration # 23     ecut=   150.00 Ry     beta= 0.70
     Davidson diagonalization with overlap

---- Real-time Memory Report at c_bands before calling an iterative solver
          2365 MiB given to the printing process from OS
             0 MiB allocation reported by mallinfo(arena+hblkhd)
        149167 MiB available memory on the node where the printing process lives
------------------
     ethr =  1.81E-09,  avg # of iterations =  4.2

     total cpu time spent up to now is     3927.0 secs

     total energy              =   -2780.16207708 Ry
     estimated scf accuracy    <       0.00002905 Ry

     iteration # 24     ecut=   150.00 Ry     beta= 0.70
     Davidson diagonalization with overlap

---- Real-time Memory Report at c_bands before calling an iterative solver
          2377 MiB given to the printing process from OS
             0 MiB allocation reported by mallinfo(arena+hblkhd)
        149074 MiB available memory on the node where the printing process lives
------------------
     ethr =  1.81E-09,  avg # of iterations =  4.0

     total cpu time spent up to now is     4133.9 secs

     total energy              =   -2780.16207824 Ry
     estimated scf accuracy    <       0.00000377 Ry

     iteration # 25     ecut=   150.00 Ry     beta= 0.70
     Davidson diagonalization with overlap

---- Real-time Memory Report at c_bands before calling an iterative solver
          2380 MiB given to the printing process from OS
             0 MiB allocation reported by mallinfo(arena+hblkhd)
        149018 MiB available memory on the node where the printing process lives
------------------
     ethr =  1.31E-09,  avg # of iterations =  2.2

     total cpu time spent up to now is     4304.6 secs

     total energy              =   -2780.16207860 Ry
     estimated scf accuracy    <       0.00000034 Ry

     iteration # 26     ecut=   150.00 Ry     beta= 0.70
     Davidson diagonalization with overlap

---- Real-time Memory Report at c_bands before calling an iterative solver
          2381 MiB given to the printing process from OS
             0 MiB allocation reported by mallinfo(arena+hblkhd)
        148982 MiB available memory on the node where the printing process lives
------------------
     ethr =  1.19E-10,  avg # of iterations =  4.8

     total cpu time spent up to now is     4530.8 secs

     End of self-consistent calculation

          k = 0.0000 0.0000 0.0000 ( 78839 PWs)   bands (ev):

    -5.5374  -5.0458  -5.0373  -4.7855  -4.7820  -4.7787  -4.7733  -4.6771
    -4.6711  -4.6675  -4.6672  -4.6666  -4.6625  -4.6475  -4.6463  -4.6391
    -3.3716  -3.3641  -3.3638  -3.3471  -3.3468  -3.3432  -3.3432  -3.3220
    -3.3212  -3.3204  -3.3181  -3.3178  -3.3174  -3.3133  -3.3131  -3.3122
    -3.3095  -3.3094  -3.2963  -3.2963  -3.2959  -3.2108  -3.2104  -3.2101
    -3.2084  -3.2080  -3.2071  -3.2070  -3.2065  -3.2061  -3.1754  -3.1752
    -3.1751  -3.1426  -3.1425  -3.1335  -3.1334  -3.1332  -3.1228  -3.1224
    -3.1223  -3.1087  -3.1080  -3.1080  -3.1069  -3.1066  -3.1062  -3.0906
    -3.0906  -3.0880  -3.0880  -3.0645  -3.0642  -3.0640  -3.0572  -3.0570
    -3.0565  -3.0536  -3.0531  -3.0524  -3.0518  -3.0515  -3.0303  -3.0303
    -3.0297  -2.9896  -2.9863  -1.8558  -1.8554  -1.8549  -1.7514  -1.6215
    -1.6201  -1.6186  -1.6180  -1.6172  -1.6151  -1.3019  -1.3013  -1.2997
     3.3267   3.7337   3.7383   3.7415   3.7420   3.7443   3.7459   3.8685
     3.8723   3.8740   4.9889   4.9918   4.9931   6.1136   6.1161   6.1200
     6.3842   6.3896   7.5385   7.5390   7.5405   8.0620   8.0642   8.0668
     8.2980   8.3015   8.3025   8.3072   8.3097   8.3097   8.3411   8.3439
     8.3442   8.3456   8.3476   8.3554   9.1733   9.1759   9.2071   9.2080
     9.2086   9.6526   9.6557   9.6615   9.6616  10.1337  10.1655  10.1666

     occupation numbers 
     1.0000   1.0000   1.0000   1.0000   1.0000   1.0000   1.0000   1.0000
     1.0000   1.0000   1.0000   1.0000   1.0000   1.0000   1.0000   1.0000
     1.0000   1.0000   1.0000   1.0000   1.0000   1.0000   1.0000   1.0000
     1.0000   1.0000   1.0000   1.0000   1.0000   1.0000   1.0000   1.0000
     1.0000   1.0000   1.0000   1.0000   1.0000   1.0000   1.0000   1.0000
     1.0000   1.0000   1.0000   1.0000   1.0000   1.0000   1.0000   1.0000
     1.0000   1.0000   1.0000   1.0000   1.0000   1.0000   1.0000   1.0000
     1.0000   1.0000   1.0000   1.0000   1.0000   1.0000   1.0000   1.0000
     1.0000   1.0000   1.0000   1.0000   1.0000   1.0000   1.0000   1.0000
     1.0000   1.0000   1.0000   1.0000   1.0000   1.0000   1.0000   1.0000
     1.0000   1.0000   1.0000   1.0000   1.0000   1.0000   1.0000   1.0000
     1.0000   1.0000   1.0000   1.0000   1.0000   1.0000   1.0000   1.0000
     1.0000   1.0000   1.0000   1.0000   1.0000   1.0000   1.0000   1.0000
     1.0000   1.0000   1.0000   1.0000   1.0000   1.0000   1.0000   1.0000
     1.0000   1.0000   1.0000   1.0000   1.0000   1.0000   1.0000   1.0000
     1.0000   1.0000   1.0000   1.0000   1.0000   1.0000   1.0000   1.0000
     1.0000   1.0000   1.0000   1.0000   1.0000   1.0000   1.0000   1.0000
     1.0000   1.0000   1.0000   1.0000   1.0000   1.0000   1.0000   1.0000

          k = 0.0000 0.0000 0.1228 ( 78809 PWs)   bands (ev):

    -5.5101  -5.1762  -4.9309  -4.7834  -4.7769  -4.7734  -4.7702  -4.6968
    -4.6932  -4.6900  -4.6567  -4.6534  -4.6516  -4.6454  -4.6449  -4.6368
    -3.3640  -3.3636  -3.3628  -3.3525  -3.3523  -3.3362  -3.3360  -3.3290
    -3.3287  -3.3284  -3.3194  -3.3193  -3.3190  -3.3115  -3.3115  -3.2961
    -3.2961  -3.2958  -3.2921  -3.2920  -3.2916  -3.2356  -3.2355  -3.2353
    -3.2009  -3.2008  -3.2007  -3.1948  -3.1946  -3.1946  -3.1832  -3.1830
    -3.1829  -3.1624  -3.1397  -3.1396  -3.1364  -3.1362  -3.1360  -3.1318
    -3.1317  -3.1316  -3.1091  -3.1090  -3.1088  -3.1038  -3.1036  -3.0914
    -3.0914  -3.0913  -3.0765  -3.0764  -3.0645  -3.0642  -3.0640  -3.0581
    -3.0578  -3.0575  -3.0534  -3.0534  -3.0506  -3.0505  -3.0500  -3.0324
    -3.0323  -3.0317  -2.7396  -1.8527  -1.8465  -1.8460  -1.8456  -1.7028
    -1.7022  -1.7015  -1.5270  -1.5263  -1.5252  -1.3180  -1.3174  -1.3159
     3.5029   3.6117   3.6150   3.6162   3.8031   3.8070   3.8085   3.9664
     3.9694   3.9704   4.8748   4.8777   4.8789   5.4993   6.2843   6.2867
     6.2905   7.2975   7.5736   7.5742   7.5757   7.8565   7.8583   7.8620
     8.0559   8.0566   8.0578   8.1782   8.1803   8.1834   8.5647   8.5656
     8.5666   8.6280   8.6299   8.6343   9.1576   9.1592   9.1598   9.1973
     9.1990   9.5051   9.5068   9.7801   9.8115   9.8130  10.1401  10.1412

     occupation numbers 
     1.0000   1.0000   1.0000   1.0000   1.0000   1.0000   1.0000   1.0000
     1.0000   1.0000   1.0000   1.0000   1.0000   1.0000   1.0000   1.0000
     1.0000   1.0000   1.0000   1.0000   1.0000   1.0000   1.0000   1.0000
     1.0000   1.0000   1.0000   1.0000   1.0000   1.0000   1.0000   1.0000
     1.0000   1.0000   1.0000   1.0000   1.0000   1.0000   1.0000   1.0000
     1.0000   1.0000   1.0000   1.0000   1.0000   1.0000   1.0000   1.0000
     1.0000   1.0000   1.0000   1.0000   1.0000   1.0000   1.0000   1.0000
     1.0000   1.0000   1.0000   1.0000   1.0000   1.0000   1.0000   1.0000
     1.0000   1.0000   1.0000   1.0000   1.0000   1.0000   1.0000   1.0000
     1.0000   1.0000   1.0000   1.0000   1.0000   1.0000   1.0000   1.0000
     1.0000   1.0000   1.0000   1.0000   1.0000   1.0000   1.0000   1.0000
     1.0000   1.0000   1.0000   1.0000   1.0000   1.0000   1.0000   1.0000
     1.0000   1.0000   1.0000   1.0000   1.0000   1.0000   1.0000   1.0000
     1.0000   1.0000   1.0000   1.0000   1.0000   1.0000   1.0000   1.0000
     1.0000   1.0000   1.0000   1.0000   1.0000   1.0000   1.0000   1.0000
     1.0000   1.0000   1.0000   1.0000   1.0000   1.0000   1.0000   1.0000
     1.0000   1.0000   1.0000   1.0000   1.0000   1.0000   1.0000   1.0000
     1.0000   1.0000   1.0000   1.0000   1.0000   1.0000   1.0000   1.0000

          k = 0.0000 0.0000 0.2456 ( 78828 PWs)   bands (ev):

    -5.4321  -5.3141  -4.8538  -4.8060  -4.7572  -4.7530  -4.7503  -4.7258
    -4.7232  -4.7190  -4.6520  -4.6483  -4.6462  -4.6421  -4.6420  -4.6335
    -3.3635  -3.3631  -3.3567  -3.3565  -3.3334  -3.3310  -3.3307  -3.3302
    -3.3273  -3.3272  -3.3243  -3.3240  -3.3236  -3.3167  -3.3167  -3.2801
    -3.2800  -3.2795  -3.2713  -3.2662  -3.2661  -3.2659  -3.2596  -3.2594
    -3.2593  -3.2303  -3.2302  -3.2299  -3.1833  -3.1832  -3.1831  -3.1617
    -3.1616  -3.1614  -3.1583  -3.1582  -3.1581  -3.1450  -3.1449  -3.1446
    -3.1315  -3.1314  -3.1177  -3.1176  -3.0931  -3.0930  -3.0928  -3.0862
    -3.0861  -3.0860  -3.0668  -3.0667  -3.0646  -3.0641  -3.0640  -3.0589
    -3.0587  -3.0582  -3.0571  -3.0570  -3.0458  -3.0457  -3.0457  -3.0372
    -3.0371  -3.0361  -2.4318  -2.1101  -1.8185  -1.8179  -1.8174  -1.7701
    -1.7695  -1.7689  -1.4382  -1.4374  -1.4362  -1.3650  -1.3644  -1.3629
     3.5956   3.5992   3.6004   3.6781   3.6816   3.6829   3.9851   4.2678
     4.2708   4.2719   4.5971   4.6000   4.6011   4.6787   6.7175   6.7196
     6.7231   7.2789   7.2808   7.2845   7.6767   7.6774   7.6788   7.8417
     7.8422   7.8436   8.1968   8.4341   8.4362   8.4395   8.6400   8.6419
     8.6461   8.8125   8.8137   8.8145   9.0198   9.0209   9.0216   9.0488
     9.2641   9.2661   9.3702   9.3720   9.9527   9.9541  10.0667  10.0678

     occupation numbers 
     1.0000   1.0000   1.0000   1.0000   1.0000   1.0000   1.0000   1.0000
     1.0000   1.0000   1.0000   1.0000   1.0000   1.0000   1.0000   1.0000
     1.0000   1.0000   1.0000   1.0000   1.0000   1.0000   1.0000   1.0000
     1.0000   1.0000   1.0000   1.0000   1.0000   1.0000   1.0000   1.0000
     1.0000   1.0000   1.0000   1.0000   1.0000   1.0000   1.0000   1.0000
     1.0000   1.0000   1.0000   1.0000   1.0000   1.0000   1.0000   1.0000
     1.0000   1.0000   1.0000   1.0000   1.0000   1.0000   1.0000   1.0000
     1.0000   1.0000   1.0000   1.0000   1.0000   1.0000   1.0000   1.0000
     1.0000   1.0000   1.0000   1.0000   1.0000   1.0000   1.0000   1.0000
     1.0000   1.0000   1.0000   1.0000   1.0000   1.0000   1.0000   1.0000
     1.0000   1.0000   1.0000   1.0000   1.0000   1.0000   1.0000   1.0000
     1.0000   1.0000   1.0000   1.0000   1.0000   1.0000   1.0000   1.0000
     1.0000   1.0000   1.0000   1.0000   1.0000   1.0000   1.0000   1.0000
     1.0000   1.0000   1.0000   1.0000   1.0000   1.0000   1.0000   1.0000
     1.0000   1.0000   1.0000   1.0000   1.0000   1.0000   1.0000   1.0000
     1.0000   1.0000   1.0000   1.0000   1.0000   1.0000   1.0000   1.0000
     1.0000   1.0000   1.0000   1.0000   1.0000   1.0000   1.0000   1.0000
     1.0000   1.0000   1.0000   1.0000   1.0000   1.0000   1.0000   1.0000

          k = 0.0000 0.2309 0.0000 ( 78863 PWs)   bands (ev):

    -5.4481  -4.9930  -4.9846  -4.8274  -4.7775  -4.7744  -4.7544  -4.6914
    -4.6838  -4.6691  -4.6683  -4.6643  -4.6616  -4.6517  -4.6480  -4.6412
    -3.3629  -3.3508  -3.3378  -3.3350  -3.3309  -3.3274  -3.3260  -3.3240
    -3.3235  -3.3169  -3.3122  -3.3085  -3.3056  -3.3054  -3.3041  -3.3037
    -3.2982  -3.2961  -3.2919  -3.2876  -3.2872  -3.2190  -3.2184  -3.2180
    -3.2159  -3.2155  -3.2148  -3.2126  -3.1949  -3.1948  -3.1741  -3.1740
    -3.1720  -3.1501  -3.1481  -3.1435  -3.1404  -3.1402  -3.1341  -3.1300
    -3.1297  -3.1292  -3.1263  -3.1208  -3.1194  -3.1167  -3.1165  -3.1158
    -3.1154  -3.0911  -3.0885  -3.0798  -3.0749  -3.0746  -3.0665  -3.0662
    -3.0652  -3.0649  -3.0629  -3.0622  -3.0614  -3.0501  -3.0401  -3.0397
    -3.0337  -2.8952  -2.8923  -2.2747  -1.9341  -1.9337  -1.8451  -1.8420
    -1.6831  -1.6263  -1.6259  -1.6237  -1.6221  -1.2072  -1.2059  -1.1761
     3.4638   3.9163   3.9197   3.9229   3.9249   4.0338   4.0366   4.1255
     4.1722   4.1777   5.1143   5.1167   5.2913   5.9267   6.0949   6.0977
     6.3544   6.3590   7.1523   7.1535   7.6692   7.7219   7.7230   7.7277
     7.7294   8.1508   8.1542   8.2594   8.2631   8.4143   8.4223   8.4715
     8.4897   8.5437   8.5443   8.5448   8.5496   8.8640   8.8648   8.9783
     9.1521   9.1587   9.2977   9.3194   9.5047   9.5122  10.0398  10.0800

     occupation numbers 
     1.0000   1.0000   1.0000   1.0000   1.0000   1.0000   1.0000   1.0000
     1.0000   1.0000   1.0000   1.0000   1.0000   1.0000   1.0000   1.0000
     1.0000   1.0000   1.0000   1.0000   1.0000   1.0000   1.0000   1.0000
     1.0000   1.0000   1.0000   1.0000   1.0000   1.0000   1.0000   1.0000
     1.0000   1.0000   1.0000   1.0000   1.0000   1.0000   1.0000   1.0000
     1.0000   1.0000   1.0000   1.0000   1.0000   1.0000   1.0000   1.0000
     1.0000   1.0000   1.0000   1.0000   1.0000   1.0000   1.0000   1.0000
     1.0000   1.0000   1.0000   1.0000   1.0000   1.0000   1.0000   1.0000
     1.0000   1.0000   1.0000   1.0000   1.0000   1.0000   1.0000   1.0000
     1.0000   1.0000   1.0000   1.0000   1.0000   1.0000   1.0000   1.0000
     1.0000   1.0000   1.0000   1.0000   1.0000   1.0000   1.0000   1.0000
     1.0000   1.0000   1.0000   1.0000   1.0000   1.0000   1.0000   1.0000
     1.0000   1.0000   1.0000   1.0000   1.0000   1.0000   1.0000   1.0000
     1.0000   1.0000   1.0000   1.0000   1.0000   1.0000   1.0000   1.0000
     1.0000   1.0000   1.0000   1.0000   1.0000   1.0000   1.0000   1.0000
     1.0000   1.0000   1.0000   1.0000   1.0000   1.0000   1.0000   1.0000
     1.0000   1.0000   1.0000   1.0000   1.0000   1.0000   1.0000   1.0000
     1.0000   1.0000   1.0000   1.0000   1.0000   1.0000   1.0000   1.0000

          k = 0.0000 0.2309 0.1228 ( 78862 PWs)   bands (ev):

    -5.4223  -5.1111  -4.8902  -4.8181  -4.7704  -4.7673  -4.7598  -4.7185
    -4.6909  -4.6880  -4.6667  -4.6542  -4.6524  -4.6499  -4.6458  -4.6387
    -3.3607  -3.3504  -3.3436  -3.3373  -3.3278  -3.3237  -3.3216  -3.3214
    -3.3196  -3.3192  -3.3159  -3.3136  -3.3131  -3.2999  -3.2943  -3.2922
    -3.2911  -3.2905  -3.2899  -3.2848  -3.2845  -3.2450  -3.2447  -3.2406
    -3.2143  -3.1963  -3.1962  -3.1934  -3.1906  -3.1904  -3.1844  -3.1843
    -3.1830  -3.1751  -3.1506  -3.1454  -3.1451  -3.1448  -3.1409  -3.1405
    -3.1343  -3.1341  -3.1214  -3.1160  -3.1158  -3.1059  -3.1048  -3.1037
    -3.1027  -3.1026  -3.0798  -3.0763  -3.0740  -3.0737  -3.0691  -3.0685
    -3.0680  -3.0676  -3.0597  -3.0590  -3.0581  -3.0516  -3.0433  -3.0426
    -3.0420  -3.0356  -2.6519  -2.2584  -1.9999  -1.9217  -1.9214  -1.7811
    -1.7333  -1.7327  -1.6644  -1.5054  -1.5044  -1.2292  -1.2279  -1.2147
     3.6322   3.7903   3.7933   3.9682   3.9706   3.9994   4.0608   4.1450
     4.1474   4.4326   5.0118   5.0145   5.2535   5.5305   6.0524   6.2461
     6.2490   7.1815   7.2040   7.2051   7.3950   7.3971   7.6905   7.7037
     8.0222   8.0239   8.1510   8.1532   8.1759   8.2567   8.2605   8.4992
     8.5735   8.6637   8.6730   8.7809   8.7840   8.8112   8.8121   8.9369
     9.0033   9.1432   9.2505   9.3405   9.3885   9.6803   9.9698  10.0510

     occupation numbers 
     1.0000   1.0000   1.0000   1.0000   1.0000   1.0000   1.0000   1.0000
     1.0000   1.0000   1.0000   1.0000   1.0000   1.0000   1.0000   1.0000
     1.0000   1.0000   1.0000   1.0000   1.0000   1.0000   1.0000   1.0000
     1.0000   1.0000   1.0000   1.0000   1.0000   1.0000   1.0000   1.0000
     1.0000   1.0000   1.0000   1.0000   1.0000   1.0000   1.0000   1.0000
     1.0000   1.0000   1.0000   1.0000   1.0000   1.0000   1.0000   1.0000
     1.0000   1.0000   1.0000   1.0000   1.0000   1.0000   1.0000   1.0000
     1.0000   1.0000   1.0000   1.0000   1.0000   1.0000   1.0000   1.0000
     1.0000   1.0000   1.0000   1.0000   1.0000   1.0000   1.0000   1.0000
     1.0000   1.0000   1.0000   1.0000   1.0000   1.0000   1.0000   1.0000
     1.0000   1.0000   1.0000   1.0000   1.0000   1.0000   1.0000   1.0000
     1.0000   1.0000   1.0000   1.0000   1.0000   1.0000   1.0000   1.0000
     1.0000   1.0000   1.0000   1.0000   1.0000   1.0000   1.0000   1.0000
     1.0000   1.0000   1.0000   1.0000   1.0000   1.0000   1.0000   1.0000
     1.0000   1.0000   1.0000   1.0000   1.0000   1.0000   1.0000   1.0000
     1.0000   1.0000   1.0000   1.0000   1.0000   1.0000   1.0000   1.0000
     1.0000   1.0000   1.0000   1.0000   1.0000   1.0000   1.0000   1.0000
     1.0000   1.0000   1.0000   1.0000   1.0000   1.0000   1.0000   1.0000

          k = 0.0000 0.2309 0.2456 ( 78820 PWs)   bands (ev):

    -5.3488  -5.2384  -4.8227  -4.7929  -4.7810  -4.7570  -4.7485  -4.7456
    -4.7196  -4.7162  -4.6586  -4.6504  -4.6484  -4.6469  -4.6423  -4.6354
    -3.3562  -3.3494  -3.3492  -3.3423  -3.3262  -3.3202  -3.3191  -3.3187
    -3.3180  -3.3136  -3.3133  -3.3100  -3.3086  -3.2995  -3.2930  -3.2876
    -3.2872  -3.2812  -3.2715  -3.2713  -3.2635  -3.2624  -3.2566  -3.2563
    -3.2436  -3.2343  -3.2249  -3.2248  -3.1806  -3.1744  -3.1738  -3.1733
    -3.1696  -3.1693  -3.1626  -3.1586  -3.1542  -3.1540  -3.1522  -3.1520
    -3.1324  -3.1320  -3.1188  -3.1076  -3.1066  -3.1023  -3.1018  -3.1008
    -3.0968  -3.0967  -3.0840  -3.0792  -3.0735  -3.0728  -3.0727  -3.0721
    -3.0688  -3.0686  -3.0658  -3.0570  -3.0569  -3.0559  -3.0509  -3.0493
    -3.0485  -3.0408  -2.3481  -2.2084  -2.1225  -2.0321  -1.8844  -1.8840
    -1.8211  -1.8205  -1.4824  -1.3893  -1.3882  -1.3235  -1.2924  -1.2912
     3.7686   3.7715   3.8453   3.8477   3.9262   3.9584   4.0933   4.4381
     4.4406   4.7415   4.7516   4.7541   4.7576   5.0489   6.4683   6.6151
     6.6177   7.0311   7.0338   7.0584   7.3724   7.3734   7.6875   7.6890
     7.8048   7.9568   7.9662   8.3318   8.3329   8.4468   8.4501   8.5341
     8.7026   8.7041   8.7111   8.7401   8.7539   8.7809   8.7840   8.8171
     8.9146   9.0764   9.1163   9.1925   9.6143   9.8135   9.8388   9.9675

     occupation numbers 
     1.0000   1.0000   1.0000   1.0000   1.0000   1.0000   1.0000   1.0000
     1.0000   1.0000   1.0000   1.0000   1.0000   1.0000   1.0000   1.0000
     1.0000   1.0000   1.0000   1.0000   1.0000   1.0000   1.0000   1.0000
     1.0000   1.0000   1.0000   1.0000   1.0000   1.0000   1.0000   1.0000
     1.0000   1.0000   1.0000   1.0000   1.0000   1.0000   1.0000   1.0000
     1.0000   1.0000   1.0000   1.0000   1.0000   1.0000   1.0000   1.0000
     1.0000   1.0000   1.0000   1.0000   1.0000   1.0000   1.0000   1.0000
     1.0000   1.0000   1.0000   1.0000   1.0000   1.0000   1.0000   1.0000
     1.0000   1.0000   1.0000   1.0000   1.0000   1.0000   1.0000   1.0000
     1.0000   1.0000   1.0000   1.0000   1.0000   1.0000   1.0000   1.0000
     1.0000   1.0000   1.0000   1.0000   1.0000   1.0000   1.0000   1.0000
     1.0000   1.0000   1.0000   1.0000   1.0000   1.0000   1.0000   1.0000
     1.0000   1.0000   1.0000   1.0000   1.0000   1.0000   1.0000   1.0000
     1.0000   1.0000   1.0000   1.0000   1.0000   1.0000   1.0000   1.0000
     1.0000   1.0000   1.0000   1.0000   1.0000   1.0000   1.0000   1.0000
     1.0000   1.0000   1.0000   1.0000   1.0000   1.0000   1.0000   1.0000
     1.0000   1.0000   1.0000   1.0000   1.0000   1.0000   1.0000   1.0000
     1.0000   1.0000   1.0000   1.0000   1.0000   1.0000   1.0000   1.0000

          k = 0.0000 0.4619 0.0000 ( 78795 PWs)   bands (ev):

    -5.2227  -4.9791  -4.8709  -4.8627  -4.7684  -4.7649  -4.7543  -4.7473
    -4.7105  -4.6735  -4.6646  -4.6639  -4.6600  -4.6579  -4.6504  -4.6433
    -3.3423  -3.3421  -3.3356  -3.3220  -3.3166  -3.3123  -3.3097  -3.3027
    -3.3012  -3.3004  -3.2902  -3.2869  -3.2785  -3.2783  -3.2774  -3.2769
    -3.2709  -3.2483  -3.2479  -3.2460  -3.2456  -3.2424  -3.2316  -3.2313
    -3.2300  -3.2284  -3.2281  -3.1939  -3.1902  -3.1839  -3.1836  -3.1768
    -3.1766  -3.1764  -3.1688  -3.1629  -3.1628  -3.1608  -3.1570  -3.1506
    -3.1486  -3.1460  -3.1452  -3.1445  -3.1442  -3.1386  -3.1384  -3.1368
    -3.1367  -3.1142  -3.0903  -3.0878  -3.0873  -3.0872  -3.0852  -3.0823
    -3.0795  -3.0713  -3.0709  -3.0698  -3.0693  -3.0591  -3.0585  -3.0458
    -3.0402  -2.8259  -2.6691  -2.6664  -2.2932  -2.2904  -2.0244  -2.0240
    -1.6358  -1.6353  -1.6330  -1.6314  -1.4974  -1.2681  -1.0914  -1.0901
     3.8483   4.2780   4.2810   4.2839   4.2860   4.3138   4.4449   4.4467
     5.1637   5.1676   5.2065   5.2097   5.6984   6.0540   6.0556   6.1762
     6.1777   6.4910   6.4921   6.6954   7.0236   7.0332   7.0344   7.0395
     7.0420   7.9874   8.0281   8.1343   8.1368   8.2504   8.2517   8.3266
     8.3297   8.3611   8.3645   8.5204   8.5899   8.5901   8.5904   8.5959
     8.7243   8.7321   9.1380   9.1457   9.1926   9.5377   9.7346   9.8397

     occupation numbers 
     1.0000   1.0000   1.0000   1.0000   1.0000   1.0000   1.0000   1.0000
     1.0000   1.0000   1.0000   1.0000   1.0000   1.0000   1.0000   1.0000
     1.0000   1.0000   1.0000   1.0000   1.0000   1.0000   1.0000   1.0000
     1.0000   1.0000   1.0000   1.0000   1.0000   1.0000   1.0000   1.0000
     1.0000   1.0000   1.0000   1.0000   1.0000   1.0000   1.0000   1.0000
     1.0000   1.0000   1.0000   1.0000   1.0000   1.0000   1.0000   1.0000
     1.0000   1.0000   1.0000   1.0000   1.0000   1.0000   1.0000   1.0000
     1.0000   1.0000   1.0000   1.0000   1.0000   1.0000   1.0000   1.0000
     1.0000   1.0000   1.0000   1.0000   1.0000   1.0000   1.0000   1.0000
     1.0000   1.0000   1.0000   1.0000   1.0000   1.0000   1.0000   1.0000
     1.0000   1.0000   1.0000   1.0000   1.0000   1.0000   1.0000   1.0000
     1.0000   1.0000   1.0000   1.0000   1.0000   1.0000   1.0000   1.0000
     1.0000   1.0000   1.0000   1.0000   1.0000   1.0000   1.0000   1.0000
     1.0000   1.0000   1.0000   1.0000   1.0000   1.0000   1.0000   1.0000
     1.0000   1.0000   1.0000   1.0000   1.0000   1.0000   1.0000   1.0000
     1.0000   1.0000   1.0000   1.0000   1.0000   1.0000   1.0000   1.0000
     1.0000   1.0000   1.0000   1.0000   1.0000   1.0000   1.0000   1.0000
     1.0000   1.0000   1.0000   1.0000   1.0000   1.0000   1.0000   1.0000

          k = 0.0000 0.4619 0.1228 ( 78818 PWs)   bands (ev):

    -5.2015  -4.9651  -4.9558  -4.8060  -4.7976  -4.7599  -4.7568  -4.7147
    -4.7122  -4.6842  -4.6820  -4.6719  -4.6530  -4.6522  -4.6464  -4.6399
    -3.3373  -3.3371  -3.3355  -3.3207  -3.3199  -3.3179  -3.3130  -3.3022
    -3.3000  -3.2984  -3.2851  -3.2844  -3.2841  -3.2763  -3.2740  -3.2731
    -3.2728  -3.2613  -3.2536  -3.2531  -3.2486  -3.2478  -3.2474  -3.2366
    -3.2272  -3.2060  -3.2059  -3.1962  -3.1941  -3.1939  -3.1922  -3.1762
    -3.1754  -3.1752  -3.1736  -3.1597  -3.1595  -3.1570  -3.1535  -3.1493
    -3.1489  -3.1436  -3.1426  -3.1378  -3.1377  -3.1373  -3.1358  -3.1336
    -3.1333  -3.1131  -3.1036  -3.0912  -3.0844  -3.0839  -3.0822  -3.0774
    -3.0773  -3.0750  -3.0697  -3.0675  -3.0674  -3.0629  -3.0619  -3.0477
    -3.0422  -2.8589  -2.8071  -2.4947  -2.4130  -2.0449  -2.0087  -2.0083
    -1.7709  -1.7702  -1.5857  -1.4827  -1.4816  -1.3371  -1.1212  -1.1200
     3.9865   4.1667   4.1695   4.3508   4.3704   4.3719   4.4791   4.4816
     4.8768   5.1481   5.1518   5.4728   5.4888   5.8004   6.2552   6.2570
     6.5880   6.5895   6.5933   6.6213   6.7435   6.7454   7.0688   7.3564
     7.3575   7.5096   7.8841   7.9336   8.0604   8.1338   8.1357   8.1864
     8.1875   8.4264   8.4300   8.5022   8.5495   8.6817   8.8252   8.8423
     8.8455   8.9427   8.9644   9.2141   9.3480   9.4946   9.6940   9.8034

     occupation numbers 
     1.0000   1.0000   1.0000   1.0000   1.0000   1.0000   1.0000   1.0000
     1.0000   1.0000   1.0000   1.0000   1.0000   1.0000   1.0000   1.0000
     1.0000   1.0000   1.0000   1.0000   1.0000   1.0000   1.0000   1.0000
     1.0000   1.0000   1.0000   1.0000   1.0000   1.0000   1.0000   1.0000
     1.0000   1.0000   1.0000   1.0000   1.0000   1.0000   1.0000   1.0000
     1.0000   1.0000   1.0000   1.0000   1.0000   1.0000   1.0000   1.0000
     1.0000   1.0000   1.0000   1.0000   1.0000   1.0000   1.0000   1.0000
     1.0000   1.0000   1.0000   1.0000   1.0000   1.0000   1.0000   1.0000
     1.0000   1.0000   1.0000   1.0000   1.0000   1.0000   1.0000   1.0000
     1.0000   1.0000   1.0000   1.0000   1.0000   1.0000   1.0000   1.0000
     1.0000   1.0000   1.0000   1.0000   1.0000   1.0000   1.0000   1.0000
     1.0000   1.0000   1.0000   1.0000   1.0000   1.0000   1.0000   1.0000
     1.0000   1.0000   1.0000   1.0000   1.0000   1.0000   1.0000   1.0000
     1.0000   1.0000   1.0000   1.0000   1.0000   1.0000   1.0000   1.0000
     1.0000   1.0000   1.0000   1.0000   1.0000   1.0000   1.0000   1.0000
     1.0000   1.0000   1.0000   1.0000   1.0000   1.0000   1.0000   1.0000
     1.0000   1.0000   1.0000   1.0000   1.0000   1.0000   1.0000   1.0000
     1.0000   1.0000   1.0000   1.0000   1.0000   1.0000   1.0000   1.0000

          k = 0.0000 0.4619 0.2456 ( 78849 PWs)   bands (ev):

    -5.1417  -5.0539  -4.9242  -4.8664  -4.7540  -4.7399  -4.7373  -4.7255
    -4.7115  -4.7082  -4.6901  -4.6758  -4.6499  -4.6489  -4.6429  -4.6369
    -3.3341  -3.3274  -3.3230  -3.3229  -3.3212  -3.3172  -3.3167  -3.3084
    -3.3009  -3.3006  -3.2928  -3.2909  -3.2809  -3.2767  -3.2742  -3.2739
    -3.2667  -3.2654  -3.2644  -3.2640  -3.2542  -3.2512  -3.2356  -3.2354
    -3.2136  -3.2133  -3.2122  -3.1991  -3.1952  -3.1899  -3.1898  -3.1877
    -3.1801  -3.1799  -3.1696  -3.1633  -3.1534  -3.1531  -3.1502  -3.1500
    -3.1383  -3.1361  -3.1344  -3.1312  -3.1302  -3.1297  -3.1286  -3.1272
    -3.1267  -3.1167  -3.1095  -3.0999  -3.0843  -3.0835  -3.0775  -3.0775
    -3.0729  -3.0728  -3.0673  -3.0660  -3.0636  -3.0591  -3.0589  -3.0530
    -3.0479  -2.9871  -2.7489  -2.6464  -2.1142  -1.9614  -1.9609  -1.8815
    -1.8809  -1.8157  -1.7757  -1.5227  -1.3332  -1.3320  -1.2061  -1.2049
     4.1527   4.1552   4.2359   4.2376   4.3619   4.4611   4.6388   4.7275
     4.7304   4.8867   4.9738   4.9775   5.8058   5.9663   6.3564   6.3583
     6.5101   6.5125   6.5586   6.9167   6.9779   6.9791   7.0394   7.1703
     7.4931   7.4946   7.6162   7.6431   7.7532   7.7542   7.9942   7.9952
     8.1552   8.3064   8.6341   8.6561   8.6596   8.7690   8.8433   8.8469
     9.0531   9.1871   9.2098   9.2426   9.3720   9.5401   9.5417   9.6993

     occupation numbers 
     1.0000   1.0000   1.0000   1.0000   1.0000   1.0000   1.0000   1.0000
     1.0000   1.0000   1.0000   1.0000   1.0000   1.0000   1.0000   1.0000
     1.0000   1.0000   1.0000   1.0000   1.0000   1.0000   1.0000   1.0000
     1.0000   1.0000   1.0000   1.0000   1.0000   1.0000   1.0000   1.0000
     1.0000   1.0000   1.0000   1.0000   1.0000   1.0000   1.0000   1.0000
     1.0000   1.0000   1.0000   1.0000   1.0000   1.0000   1.0000   1.0000
     1.0000   1.0000   1.0000   1.0000   1.0000   1.0000   1.0000   1.0000
     1.0000   1.0000   1.0000   1.0000   1.0000   1.0000   1.0000   1.0000
     1.0000   1.0000   1.0000   1.0000   1.0000   1.0000   1.0000   1.0000
     1.0000   1.0000   1.0000   1.0000   1.0000   1.0000   1.0000   1.0000
     1.0000   1.0000   1.0000   1.0000   1.0000   1.0000   1.0000   1.0000
     1.0000   1.0000   1.0000   1.0000   1.0000   1.0000   1.0000   1.0000
     1.0000   1.0000   1.0000   1.0000   1.0000   1.0000   1.0000   1.0000
     1.0000   1.0000   1.0000   1.0000   1.0000   1.0000   1.0000   1.0000
     1.0000   1.0000   1.0000   1.0000   1.0000   1.0000   1.0000   1.0000
     1.0000   1.0000   1.0000   1.0000   1.0000   1.0000   1.0000   1.0000
     1.0000   1.0000   1.0000   1.0000   1.0000   1.0000   1.0000   1.0000
     1.0000   1.0000   1.0000   1.0000   1.0000   1.0000   1.0000   1.0000

          k = 0.2000 0.3464 0.0000 ( 78840 PWs)   bands (ev):

    -5.2905  -4.9062  -4.8979  -4.8680  -4.8639  -4.7273  -4.7236  -4.7079
    -4.7032  -4.7015  -4.6959  -4.6598  -4.6568  -4.6534  -4.6469  -4.6384
    -3.3483  -3.3408  -3.3318  -3.3186  -3.3174  -3.3160  -3.3157  -3.3030
    -3.3002  -3.2988  -3.2977  -3.2966  -3.2959  -3.2911  -3.2904  -3.2811
    -3.2792  -3.2781  -3.2752  -3.2444  -3.2334  -3.2326  -3.2304  -3.2300
    -3.2295  -3.2271  -3.2245  -3.2080  -3.2072  -3.1799  -3.1792  -3.1724
    -3.1706  -3.1700  -3.1694  -3.1620  -3.1570  -3.1531  -3.1461  -3.1454
    -3.1452  -3.1438  -3.1430  -3.1423  -3.1362  -3.1360  -3.1351  -3.1225
    -3.1217  -3.0948  -3.0946  -3.0920  -3.0909  -3.0885  -3.0863  -3.0799
    -3.0780  -3.0724  -3.0720  -3.0702  -3.0696  -3.0576  -3.0466  -3.0462
    -3.0453  -2.7426  -2.7398  -2.5004  -2.4994  -2.0026  -2.0007  -1.9995
    -1.9974  -1.6364  -1.5554  -1.4381  -1.4348  -1.2090  -1.1585  -1.1566
     3.7257   3.9947   4.0015   4.2720   4.3937   4.3973   4.6400   4.6431
     4.6451   4.6479   5.0949   5.4648   5.4670   5.8969   6.1253   6.1266
     6.1975   6.2006   6.7743   6.7892   6.7955   7.4384   7.4392   7.5684
     7.8273   7.9481   7.9521   7.9552   7.9564   8.0956   8.1032   8.4512
     8.4529   8.4568   8.4570   8.5825   8.5862   8.6799   8.6829   8.8059
     8.8130   8.8186   9.0720   9.0741   9.1664   9.1751   9.8243   9.8455

     occupation numbers 
     1.0000   1.0000   1.0000   1.0000   1.0000   1.0000   1.0000   1.0000
     1.0000   1.0000   1.0000   1.0000   1.0000   1.0000   1.0000   1.0000
     1.0000   1.0000   1.0000   1.0000   1.0000   1.0000   1.0000   1.0000
     1.0000   1.0000   1.0000   1.0000   1.0000   1.0000   1.0000   1.0000
     1.0000   1.0000   1.0000   1.0000   1.0000   1.0000   1.0000   1.0000
     1.0000   1.0000   1.0000   1.0000   1.0000   1.0000   1.0000   1.0000
     1.0000   1.0000   1.0000   1.0000   1.0000   1.0000   1.0000   1.0000
     1.0000   1.0000   1.0000   1.0000   1.0000   1.0000   1.0000   1.0000
     1.0000   1.0000   1.0000   1.0000   1.0000   1.0000   1.0000   1.0000
     1.0000   1.0000   1.0000   1.0000   1.0000   1.0000   1.0000   1.0000
     1.0000   1.0000   1.0000   1.0000   1.0000   1.0000   1.0000   1.0000
     1.0000   1.0000   1.0000   1.0000   1.0000   1.0000   1.0000   1.0000
     1.0000   1.0000   1.0000   1.0000   1.0000   1.0000   1.0000   1.0000
     1.0000   1.0000   1.0000   1.0000   1.0000   1.0000   1.0000   1.0000
     1.0000   1.0000   1.0000   1.0000   1.0000   1.0000   1.0000   1.0000
     1.0000   1.0000   1.0000   1.0000   1.0000   1.0000   1.0000   1.0000
     1.0000   1.0000   1.0000   1.0000   1.0000   1.0000   1.0000   1.0000
     1.0000   1.0000   1.0000   1.0000   1.0000   1.0000   1.0000   1.0000

          k = 0.2000 0.3464 0.1228 ( 78810 PWs)   bands (ev):

    -5.2678  -5.0015  -4.8575  -4.8538  -4.8234  -4.7420  -4.7382  -4.7267
    -4.7199  -4.6792  -4.6762  -4.6636  -4.6583  -4.6547  -4.6481  -4.6354
    -3.3429  -3.3402  -3.3308  -3.3256  -3.3146  -3.3136  -3.3128  -3.3068
    -3.3054  -3.3051  -3.2948  -3.2940  -3.2921  -3.2876  -3.2830  -3.2811
    -3.2799  -3.2758  -3.2638  -3.2584  -3.2523  -3.2517  -3.2489  -3.2230
    -3.2170  -3.2154  -3.2117  -3.2109  -3.1981  -3.1853  -3.1792  -3.1782
    -3.1769  -3.1714  -3.1704  -3.1658  -3.1544  -3.1540  -3.1533  -3.1495
    -3.1411  -3.1365  -3.1359  -3.1347  -3.1328  -3.1324  -3.1312  -3.1198
    -3.1133  -3.1002  -3.0922  -3.0917  -3.0916  -3.0894  -3.0824  -3.0787
    -3.0779  -3.0773  -3.0751  -3.0676  -3.0659  -3.0619  -3.0492  -3.0489
    -3.0465  -2.9219  -2.4902  -2.4819  -2.4809  -2.1849  -2.1836  -1.7849
    -1.7833  -1.6470  -1.6278  -1.5031  -1.3667  -1.2200  -1.2107  -1.2087
     3.8757   3.9265   4.1712   4.2086   4.3483   4.3512   4.4378   4.4405
     4.9121   4.9134   4.9845   5.5255   5.5338   5.5355   5.9245   6.1529
     6.1554   6.4764   6.8308   6.9420   7.1373   7.4620   7.4630   7.5248
     7.5291   7.6115   7.9042   7.9961   7.9992   8.0340   8.0838   8.2417
     8.3304   8.3336   8.3472   8.7665   8.7758   8.8312   8.8339   8.8588
     8.8638   8.8691   9.0319   9.0338   9.0989   9.3543   9.7891   9.8018

     occupation numbers 
     1.0000   1.0000   1.0000   1.0000   1.0000   1.0000   1.0000   1.0000
     1.0000   1.0000   1.0000   1.0000   1.0000   1.0000   1.0000   1.0000
     1.0000   1.0000   1.0000   1.0000   1.0000   1.0000   1.0000   1.0000
     1.0000   1.0000   1.0000   1.0000   1.0000   1.0000   1.0000   1.0000
     1.0000   1.0000   1.0000   1.0000   1.0000   1.0000   1.0000   1.0000
     1.0000   1.0000   1.0000   1.0000   1.0000   1.0000   1.0000   1.0000
     1.0000   1.0000   1.0000   1.0000   1.0000   1.0000   1.0000   1.0000
     1.0000   1.0000   1.0000   1.0000   1.0000   1.0000   1.0000   1.0000
     1.0000   1.0000   1.0000   1.0000   1.0000   1.0000   1.0000   1.0000
     1.0000   1.0000   1.0000   1.0000   1.0000   1.0000   1.0000   1.0000
     1.0000   1.0000   1.0000   1.0000   1.0000   1.0000   1.0000   1.0000
     1.0000   1.0000   1.0000   1.0000   1.0000   1.0000   1.0000   1.0000
     1.0000   1.0000   1.0000   1.0000   1.0000   1.0000   1.0000   1.0000
     1.0000   1.0000   1.0000   1.0000   1.0000   1.0000   1.0000   1.0000
     1.0000   1.0000   1.0000   1.0000   1.0000   1.0000   1.0000   1.0000
     1.0000   1.0000   1.0000   1.0000   1.0000   1.0000   1.0000   1.0000
     1.0000   1.0000   1.0000   1.0000   1.0000   1.0000   1.0000   1.0000
     1.0000   1.0000   1.0000   1.0000   1.0000   1.0000   1.0000   1.0000

          k = 0.2000 0.3464 0.2456 ( 78818 PWs)   bands (ev):

    -5.2035  -5.1083  -4.8279  -4.8241  -4.7854  -4.7817  -4.7710  -4.7409
    -4.7052  -4.6828  -4.6674  -4.6642  -4.6580  -4.6539  -4.6451  -4.6351
    -3.3381  -3.3325  -3.3279  -3.3277  -3.3196  -3.3115  -3.3108  -3.3071
    -3.3058  -3.3045  -3.2978  -3.2939  -3.2925  -3.2879  -3.2842  -3.2802
    -3.2787  -3.2773  -3.2686  -3.2603  -3.2539  -3.2521  -3.2401  -3.2344
    -3.2325  -3.2160  -3.2126  -3.2007  -3.1964  -3.1960  -3.1841  -3.1834
    -3.1757  -3.1677  -3.1660  -3.1615  -3.1609  -3.1600  -3.1542  -3.1415
    -3.1354  -3.1307  -3.1301  -3.1286  -3.1282  -3.1278  -3.1173  -3.1049
    -3.1041  -3.1027  -3.0953  -3.0911  -3.0873  -3.0861  -3.0856  -3.0814
    -3.0798  -3.0794  -3.0777  -3.0717  -3.0637  -3.0627  -3.0553  -3.0548
    -3.0489  -3.0285  -2.4252  -2.4242  -2.3269  -2.3258  -2.1893  -1.8845
    -1.6023  -1.5598  -1.5587  -1.5570  -1.3548  -1.3528  -1.3028  -1.2517
     3.9586   4.0724   4.2842   4.2945   4.2972   4.3186   4.3219   4.4272
     4.7234   4.8643   5.2096   5.2110   5.4676   5.4686   6.0273   6.2150
     6.4398   6.4436   6.9692   6.9729   7.3543   7.3808   7.4787   7.5512
     7.5520   7.7260   7.7272   7.7405   7.7706   7.8012   7.8652   7.9533
     8.3176   8.5994   8.6019   8.6214   8.7373   8.7964   8.8193   8.8216
     9.0316   9.0335   9.0360   9.0425   9.3813   9.5364   9.6492   9.6887

     occupation numbers 
     1.0000   1.0000   1.0000   1.0000   1.0000   1.0000   1.0000   1.0000
     1.0000   1.0000   1.0000   1.0000   1.0000   1.0000   1.0000   1.0000
     1.0000   1.0000   1.0000   1.0000   1.0000   1.0000   1.0000   1.0000
     1.0000   1.0000   1.0000   1.0000   1.0000   1.0000   1.0000   1.0000
     1.0000   1.0000   1.0000   1.0000   1.0000   1.0000   1.0000   1.0000
     1.0000   1.0000   1.0000   1.0000   1.0000   1.0000   1.0000   1.0000
     1.0000   1.0000   1.0000   1.0000   1.0000   1.0000   1.0000   1.0000
     1.0000   1.0000   1.0000   1.0000   1.0000   1.0000   1.0000   1.0000
     1.0000   1.0000   1.0000   1.0000   1.0000   1.0000   1.0000   1.0000
     1.0000   1.0000   1.0000   1.0000   1.0000   1.0000   1.0000   1.0000
     1.0000   1.0000   1.0000   1.0000   1.0000   1.0000   1.0000   1.0000
     1.0000   1.0000   1.0000   1.0000   1.0000   1.0000   1.0000   1.0000
     1.0000   1.0000   1.0000   1.0000   1.0000   1.0000   1.0000   1.0000
     1.0000   1.0000   1.0000   1.0000   1.0000   1.0000   1.0000   1.0000
     1.0000   1.0000   1.0000   1.0000   1.0000   1.0000   1.0000   1.0000
     1.0000   1.0000   1.0000   1.0000   1.0000   1.0000   1.0000   1.0000
     1.0000   1.0000   1.0000   1.0000   1.0000   1.0000   1.0000   1.0000
     1.0000   1.0000   1.0000   1.0000   1.0000   1.0000   1.0000   1.0000

          k = 0.2000 0.5774 0.0000 ( 78832 PWs)   bands (ev):

    -5.0576  -5.0555  -4.8811  -4.7913  -4.7887  -4.7847  -4.7797  -4.7115
    -4.7053  -4.7001  -4.6843  -4.6816  -4.6615  -4.6586  -4.6404  -4.6326
    -3.3593  -3.3273  -3.3157  -3.3151  -3.3114  -3.3109  -3.2952  -3.2949
    -3.2933  -3.2926  -3.2797  -3.2781  -3.2703  -3.2669  -3.2667  -3.2645
    -3.2636  -3.2600  -3.2592  -3.2467  -3.2450  -3.2446  -3.2437  -3.2377
    -3.2349  -3.2226  -3.2222  -3.2181  -3.1987  -3.1909  -3.1803  -3.1762
    -3.1759  -3.1714  -3.1692  -3.1659  -3.1652  -3.1647  -3.1639  -3.1634
    -3.1624  -3.1564  -3.1454  -3.1317  -3.1296  -3.1272  -3.1271  -3.1268
    -3.1191  -3.1189  -3.1042  -3.1000  -3.0882  -3.0871  -3.0846  -3.0842
    -3.0827  -3.0823  -3.0726  -3.0714  -3.0681  -3.0624  -3.0616  -3.0603
    -2.9551  -2.9546  -2.5703  -2.4383  -2.4378  -2.4358  -2.4348  -2.0549
    -2.0518  -1.5417  -1.3661  -1.3627  -1.3407  -1.3398  -1.1788  -1.1528
     4.1511   4.1568   4.1733   4.1781   4.5036   4.7339   4.8933   4.9226
     4.9270   5.4848   5.5932   5.5958   5.5971   5.5978   5.9006   5.9781
     6.2921   6.3000   6.3165   6.3193   6.9042   7.0012   7.0028   7.2435
     7.6723   7.6968   7.7021   7.7039   8.0844   8.0856   8.1840   8.1846
     8.1870   8.1881   8.4130   8.4148   8.6543   8.6582   8.6614   8.6653
     8.7287   8.7320   8.7745   8.9565   9.4290   9.4300   9.4388   9.4418

     occupation numbers 
     1.0000   1.0000   1.0000   1.0000   1.0000   1.0000   1.0000   1.0000
     1.0000   1.0000   1.0000   1.0000   1.0000   1.0000   1.0000   1.0000
     1.0000   1.0000   1.0000   1.0000   1.0000   1.0000   1.0000   1.0000
     1.0000   1.0000   1.0000   1.0000   1.0000   1.0000   1.0000   1.0000
     1.0000   1.0000   1.0000   1.0000   1.0000   1.0000   1.0000   1.0000
     1.0000   1.0000   1.0000   1.0000   1.0000   1.0000   1.0000   1.0000
     1.0000   1.0000   1.0000   1.0000   1.0000   1.0000   1.0000   1.0000
     1.0000   1.0000   1.0000   1.0000   1.0000   1.0000   1.0000   1.0000
     1.0000   1.0000   1.0000   1.0000   1.0000   1.0000   1.0000   1.0000
     1.0000   1.0000   1.0000   1.0000   1.0000   1.0000   1.0000   1.0000
     1.0000   1.0000   1.0000   1.0000   1.0000   1.0000   1.0000   1.0000
     1.0000   1.0000   1.0000   1.0000   1.0000   1.0000   1.0000   1.0000
     1.0000   1.0000   1.0000   1.0000   1.0000   1.0000   1.0000   1.0000
     1.0000   1.0000   1.0000   1.0000   1.0000   1.0000   1.0000   1.0000
     1.0000   1.0000   1.0000   1.0000   1.0000   1.0000   1.0000   1.0000
     1.0000   1.0000   1.0000   1.0000   1.0000   1.0000   1.0000   1.0000
     1.0000   1.0000   1.0000   1.0000   1.0000   1.0000   1.0000   1.0000
     1.0000   1.0000   1.0000   1.0000   1.0000   1.0000   1.0000   1.0000

          k = 0.2000 0.5774 0.1228 ( 78804 PWs)   bands (ev):

    -5.0406  -5.0386  -4.8697  -4.8521  -4.8504  -4.7479  -4.7387  -4.7361
    -4.6964  -4.6872  -4.6854  -4.6784  -4.6600  -4.6578  -4.6465  -4.6334
    -3.3535  -3.3233  -3.3139  -3.3131  -3.3118  -3.3113  -3.3048  -3.3032
    -3.2861  -3.2851  -3.2837  -3.2781  -3.2776  -3.2772  -3.2763  -3.2736
    -3.2574  -3.2538  -3.2533  -3.2516  -3.2492  -3.2479  -3.2458  -3.2330
    -3.2265  -3.2257  -3.2205  -3.2101  -3.2043  -3.2031  -3.1843  -3.1713
    -3.1711  -3.1695  -3.1676  -3.1652  -3.1643  -3.1638  -3.1596  -3.1588
    -3.1542  -3.1467  -3.1381  -3.1349  -3.1329  -3.1325  -3.1305  -3.1269
    -3.1145  -3.1143  -3.1026  -3.0940  -3.0933  -3.0917  -3.0910  -3.0859
    -3.0770  -3.0762  -3.0755  -3.0737  -3.0718  -3.0641  -3.0630  -3.0622
    -2.9386  -2.9381  -2.6403  -2.6401  -2.5514  -2.2452  -2.1822  -2.1817
    -1.8265  -1.5337  -1.4222  -1.4179  -1.4167  -1.3062  -1.2101  -1.1874
     4.1467   4.2641   4.2661   4.2725   4.4912   4.6363   4.7106   4.8454
     5.1862   5.2162   5.2178   5.4715   5.8523   5.9633   5.9718   5.9725
     6.1400   6.3850   6.3874   6.6637   6.9446   6.9466   7.0769   7.2199
     7.4682   7.5917   7.6473   7.6485   7.7196   7.8431   8.0788   8.0799
     8.0815   8.3580   8.3590   8.4601   8.7147   8.7429   8.7438   8.7474
     8.8568   8.9210   8.9219   9.0162   9.3726   9.3746   9.4547   9.4587

     occupation numbers 
     1.0000   1.0000   1.0000   1.0000   1.0000   1.0000   1.0000   1.0000
     1.0000   1.0000   1.0000   1.0000   1.0000   1.0000   1.0000   1.0000
     1.0000   1.0000   1.0000   1.0000   1.0000   1.0000   1.0000   1.0000
     1.0000   1.0000   1.0000   1.0000   1.0000   1.0000   1.0000   1.0000
     1.0000   1.0000   1.0000   1.0000   1.0000   1.0000   1.0000   1.0000
     1.0000   1.0000   1.0000   1.0000   1.0000   1.0000   1.0000   1.0000
     1.0000   1.0000   1.0000   1.0000   1.0000   1.0000   1.0000   1.0000
     1.0000   1.0000   1.0000   1.0000   1.0000   1.0000   1.0000   1.0000
     1.0000   1.0000   1.0000   1.0000   1.0000   1.0000   1.0000   1.0000
     1.0000   1.0000   1.0000   1.0000   1.0000   1.0000   1.0000   1.0000
     1.0000   1.0000   1.0000   1.0000   1.0000   1.0000   1.0000   1.0000
     1.0000   1.0000   1.0000   1.0000   1.0000   1.0000   1.0000   1.0000
     1.0000   1.0000   1.0000   1.0000   1.0000   1.0000   1.0000   1.0000
     1.0000   1.0000   1.0000   1.0000   1.0000   1.0000   1.0000   1.0000
     1.0000   1.0000   1.0000   1.0000   1.0000   1.0000   1.0000   1.0000
     1.0000   1.0000   1.0000   1.0000   1.0000   1.0000   1.0000   1.0000
     1.0000   1.0000   1.0000   1.0000   1.0000   1.0000   1.0000   1.0000
     1.0000   1.0000   1.0000   1.0000   1.0000   1.0000   1.0000   1.0000

          k = 0.2000 0.5774 0.2456 ( 78823 PWs)   bands (ev):

    -4.9934  -4.9917  -4.9255  -4.9231  -4.8382  -4.7928  -4.7098  -4.7084
    -4.6925  -4.6908  -4.6824  -4.6682  -4.6646  -4.6583  -4.6494  -4.6376
    -3.3370  -3.3145  -3.3140  -3.3122  -3.3106  -3.3098  -3.3091  -3.3056
    -3.3054  -3.2942  -3.2934  -3.2923  -3.2872  -3.2814  -3.2706  -3.2687
    -3.2591  -3.2575  -3.2473  -3.2432  -3.2426  -3.2408  -3.2337  -3.2325
    -3.2321  -3.2285  -3.2267  -3.2229  -3.2143  -3.2071  -3.1825  -3.1715
    -3.1653  -3.1650  -3.1625  -3.1620  -3.1610  -3.1518  -3.1515  -3.1500
    -3.1475  -3.1436  -3.1419  -3.1415  -3.1323  -3.1307  -3.1284  -3.1210
    -3.1079  -3.1073  -3.1016  -3.0997  -3.0990  -3.0950  -3.0902  -3.0866
    -3.0844  -3.0788  -3.0764  -3.0717  -3.0712  -3.0707  -3.0650  -3.0639
    -2.8855  -2.8850  -2.7882  -2.7880  -2.4931  -2.3920  -1.8974  -1.8968
    -1.6232  -1.6226  -1.5863  -1.5101  -1.4714  -1.3667  -1.2540  -1.2129
     4.2466   4.4315   4.4605   4.4943   4.5127   4.5165   4.5647   4.6828
     4.8471   4.8496   5.4616   5.5226   5.6961   5.7013   6.3156   6.3169
     6.5046   6.5056   6.5630   6.8656   6.8693   7.0306   7.1343   7.1478
     7.1503   7.2113   7.2933   7.3389   7.5254   8.0138   8.1062   8.1073
     8.1739   8.2060   8.2069   8.3114   8.5258   8.5492   9.0315   9.0322
     9.0925   9.1130   9.2288   9.2300   9.2384   9.2406   9.4149   9.4187

     occupation numbers 
     1.0000   1.0000   1.0000   1.0000   1.0000   1.0000   1.0000   1.0000
     1.0000   1.0000   1.0000   1.0000   1.0000   1.0000   1.0000   1.0000
     1.0000   1.0000   1.0000   1.0000   1.0000   1.0000   1.0000   1.0000
     1.0000   1.0000   1.0000   1.0000   1.0000   1.0000   1.0000   1.0000
     1.0000   1.0000   1.0000   1.0000   1.0000   1.0000   1.0000   1.0000
     1.0000   1.0000   1.0000   1.0000   1.0000   1.0000   1.0000   1.0000
     1.0000   1.0000   1.0000   1.0000   1.0000   1.0000   1.0000   1.0000
     1.0000   1.0000   1.0000   1.0000   1.0000   1.0000   1.0000   1.0000
     1.0000   1.0000   1.0000   1.0000   1.0000   1.0000   1.0000   1.0000
     1.0000   1.0000   1.0000   1.0000   1.0000   1.0000   1.0000   1.0000
     1.0000   1.0000   1.0000   1.0000   1.0000   1.0000   1.0000   1.0000
     1.0000   1.0000   1.0000   1.0000   1.0000   1.0000   1.0000   1.0000
     1.0000   1.0000   1.0000   1.0000   1.0000   1.0000   1.0000   1.0000
     1.0000   1.0000   1.0000   1.0000   1.0000   1.0000   1.0000   1.0000
     1.0000   1.0000   1.0000   1.0000   1.0000   1.0000   1.0000   1.0000
     1.0000   1.0000   1.0000   1.0000   1.0000   1.0000   1.0000   1.0000
     1.0000   1.0000   1.0000   1.0000   1.0000   1.0000   1.0000   1.0000
     1.0000   1.0000   1.0000   1.0000   1.0000   1.0000   1.0000   1.0000

          k =-0.2000 0.1155 0.0000 ( 78863 PWs)   bands (ev):

    -5.4481  -4.9930  -4.9846  -4.8272  -4.7765  -4.7757  -4.7543  -4.6910
    -4.6838  -4.6714  -4.6663  -4.6647  -4.6614  -4.6518  -4.6477  -4.6414
    -3.3629  -3.3507  -3.3380  -3.3350  -3.3308  -3.3273  -3.3258  -3.3240
    -3.3238  -3.3168  -3.3121  -3.3084  -3.3062  -3.3054  -3.3041  -3.3034
    -3.2982  -3.2959  -3.2919  -3.2877  -3.2873  -3.2190  -3.2185  -3.2179
    -3.2161  -3.2152  -3.2149  -3.2125  -3.1950  -3.1948  -3.1741  -3.1740
    -3.1721  -3.1501  -3.1480  -3.1435  -3.1404  -3.1403  -3.1342  -3.1299
    -3.1296  -3.1294  -3.1263  -3.1207  -3.1192  -3.1171  -3.1167  -3.1156
    -3.1153  -3.0911  -3.0885  -3.0798  -3.0749  -3.0746  -3.0664  -3.0661
    -3.0656  -3.0647  -3.0627  -3.0623  -3.0613  -3.0501  -3.0401  -3.0398
    -3.0336  -2.8952  -2.8923  -2.2748  -1.9341  -1.9337  -1.8451  -1.8420
    -1.6831  -1.6272  -1.6251  -1.6240  -1.6218  -1.2068  -1.2062  -1.1761
     3.4638   3.9175   3.9201   3.9223   3.9256   4.0349   4.0359   4.1248
     4.1710   4.1777   5.1157   5.1163   5.2909   5.9265   6.0958   6.0962
     6.3543   6.3590   7.1520   7.1535   7.6696   7.7213   7.7227   7.7279
[...]
     atom    6 type  1   force =     0.00002902    0.00005757   -0.00011222
     atom    7 type  1   force =    -0.00005230   -0.00004769   -0.00014206
     atom    8 type  1   force =     0.00004615   -0.00001046   -0.00008030
     atom    9 type  1   force =     0.00055821   -0.00033976   -0.00016519
     atom   10 type  1   force =    -0.00060174   -0.00032797   -0.00057472
     atom   11 type  1   force =    -0.00003195    0.00066837   -0.00036903
     atom   12 type  1   force =     0.00003871   -0.00000089   -0.00005137
     atom   13 type  1   force =    -0.00036659    0.00019504   -0.00072888
     atom   14 type  1   force =     0.00031772    0.00020135   -0.00001317
     atom   15 type  1   force =    -0.00002863   -0.00039517   -0.00037179
     atom   16 type  1   force =     0.00003554   -0.00000031   -0.00005268
     atom   17 type  2   force =    -0.00031702    0.00000061   -0.00242824
     atom   18 type  2   force =     0.00008967    0.00005298   -0.00019774
     atom   19 type  2   force =    -0.00004296   -0.00007730   -0.00026034
     atom   20 type  2   force =     0.00004764    0.00002342   -0.00013455
     atom   21 type  2   force =    -0.00006468    0.00000064    0.00030375
     atom   22 type  2   force =     0.00006857   -0.00001407    0.00007606
     atom   23 type  2   force =     0.00000430   -0.00003792    0.00017348
     atom   24 type  2   force =    -0.00002084    0.00005131   -0.00002185
     atom   25 type  2   force =    -0.00175966    0.00090577   -0.00120154
     atom   26 type  2   force =    -0.00041501   -0.00012405   -0.00048741
     atom   27 type  2   force =    -0.00019564   -0.00075653   -0.00083810
     atom   28 type  2   force =     0.00002480   -0.00000073   -0.00015566
     atom   29 type  2   force =    -0.00007064    0.00005697    0.00024129
     atom   30 type  2   force =     0.00004710    0.00001100    0.00019908
     atom   31 type  2   force =     0.00002803   -0.00006803    0.00022078
     atom   32 type  2   force =    -0.00002378    0.00000002    0.00003504
     The non-local contrib.  to forces
     atom    1 type  1   force =     0.00203806   -0.00001544    0.00287240
     atom    2 type  1   force =     0.00126402    0.00062039   -0.00055423
     atom    3 type  1   force =    -0.00066156   -0.00111740   -0.00093668
     atom    4 type  1   force =     0.00040449    0.00049068   -0.00016948
     atom    5 type  1   force =     0.00003730   -0.00000169    0.00121887
     atom    6 type  1   force =    -0.00004334   -0.00012197    0.00080773
     atom    7 type  1   force =     0.00010945    0.00008984    0.00092235
     atom    8 type  1   force =    -0.00009912    0.00003380    0.00069374
     atom    9 type  1   force =    -0.00135190    0.00084299    0.00117901
     atom   10 type  1   force =     0.00113140    0.00059110    0.00122269
     atom   11 type  1   force =     0.00010734   -0.00143491    0.00120562
     atom   12 type  1   force =    -0.00009187   -0.00000011    0.00073851
     atom   13 type  1   force =     0.00028623   -0.00009197    0.00150955
     atom   14 type  1   force =    -0.00032008   -0.00025394   -0.00012287
     atom   15 type  1   force =     0.00012446    0.00034844    0.00068901
     atom   16 type  1   force =    -0.00009747   -0.00000214    0.00054779
     atom   17 type  2   force =    -0.00203254    0.00000200    0.01891313
     atom   18 type  2   force =     0.00041122   -0.00003386    0.01199808
     atom   19 type  2   force =     0.00005681   -0.00020682    0.01170356
     atom   20 type  2   force =    -0.00000514    0.00023824    0.01229707
     atom   21 type  2   force =    -0.00044153    0.00000139    0.01457244
     atom   22 type  2   force =     0.00041182   -0.00000272    0.01359408
     atom   23 type  2   force =    -0.00004233   -0.00026374    0.01393180
     atom   24 type  2   force =    -0.00004841    0.00026495    0.01325387
     atom   25 type  2   force =     0.00433475   -0.00341542    0.01188473
     atom   26 type  2   force =     0.00008739    0.00095250    0.00887422
     atom   27 type  2   force =    -0.00157152    0.00246330    0.01037703
     atom   28 type  2   force =     0.00001810   -0.00000084    0.01269401
     atom   29 type  2   force =    -0.00024732    0.00020507    0.01420813
     atom   30 type  2   force =     0.00016350    0.00003242    0.01399524
     atom   31 type  2   force =     0.00010769   -0.00023756    0.01410278
     atom   32 type  2   force =    -0.00010204   -0.00000030    0.01324723
     The ionic contribution  to forces
     atom    1 type  1   force =     0.11859092   -0.00037165    0.37094672
     atom    2 type  1   force =    -0.06466734   -0.00000000    0.20703737
     atom    3 type  1   force =    -0.00558497    0.03411081    0.20703657
     atom    4 type  1   force =    -0.00558497   -0.03411081    0.20703657
     atom    5 type  1   force =     0.00173168   -0.00000000    0.11903658
     atom    6 type  1   force =    -0.00166169   -0.00000000    0.12651879
     atom    7 type  1   force =    -0.00001672    0.00094972    0.12651884
     atom    8 type  1   force =    -0.00001672   -0.00094972    0.12651884
     atom    9 type  1   force =     0.02258186   -0.00822823    0.13725111
     atom   10 type  1   force =    -0.02816849   -0.02102182    0.10628987
     atom   11 type  1   force =     0.00828619    0.02928601    0.12172955
     atom   12 type  1   force =    -0.00586797   -0.00001832    0.14388607
     atom   13 type  1   force =    -0.02844736    0.02133164    0.10597304
     atom   14 type  1   force =     0.02265820    0.00822601    0.13754224
     atom   15 type  1   force =     0.00845515   -0.02952065    0.12179964
     atom   16 type  1   force =    -0.00596199   -0.00001864    0.14401037
     atom   17 type  2   force =     0.02254385   -0.00000000   -0.23824712
     atom   18 type  2   force =    -0.00951218   -0.00000000   -0.15249448
     atom   19 type  2   force =    -0.00056925    0.00516317   -0.15251501
     atom   20 type  2   force =    -0.00056925   -0.00516317   -0.15251501
     atom   21 type  2   force =     0.00362270   -0.00000000   -0.17585294
     atom   22 type  2   force =    -0.00281229   -0.00000000   -0.16089412
     atom   23 type  2   force =    -0.00009435    0.00156920   -0.16088662
     atom   24 type  2   force =    -0.00009435   -0.00156920   -0.16088662
     atom   25 type  2   force =    -0.06492520    0.05022871   -0.14060933
     atom   26 type  2   force =     0.00218535   -0.01126352   -0.09958008
     atom   27 type  2   force =     0.02188287   -0.03860135   -0.11997240
     atom   28 type  2   force =    -0.00796811   -0.00002828   -0.13821055
     atom   29 type  2   force =     0.00080968   -0.00022598   -0.16402887
     atom   30 type  2   force =    -0.00085440   -0.00073251   -0.16503971
     atom   31 type  2   force =     0.00041631    0.00095967   -0.16453521
     atom   32 type  2   force =    -0.00038716   -0.00000109   -0.16286410
     The local contribution  to forces
     atom    1 type  1   force =    -0.11685401    0.00040791   -0.36763574
     atom    2 type  1   force =     0.06237759   -0.00089540   -0.20577187
     atom    3 type  1   force =     0.00647211   -0.03231855   -0.20524604
     atom    4 type  1   force =     0.00484893    0.03317420   -0.20631549
     atom    5 type  1   force =    -0.00177509   -0.00000606   -0.12089335
     atom    6 type  1   force =     0.00170846    0.00016213   -0.12769339
     atom    7 type  1   force =    -0.00013829   -0.00105985   -0.12781815
     atom    8 type  1   force =     0.00015620    0.00090303   -0.12756128
     atom    9 type  1   force =    -0.02056675    0.00696271   -0.13871841
     atom   10 type  1   force =     0.02633774    0.02008874   -0.10818932
     atom   11 type  1   force =    -0.00848027   -0.02707713   -0.12338289
     atom   12 type  1   force =     0.00605122    0.00000646   -0.14471374
     atom   13 type  1   force =     0.02778830   -0.02101179   -0.10837848
     atom   14 type  1   force =    -0.02201389   -0.00773888   -0.13745215
     atom   15 type  1   force =    -0.00860912    0.02874140   -0.12296781
     atom   16 type  1   force =     0.00609494   -0.00000703   -0.14467324
     atom   17 type  2   force =    -0.02090475    0.00000677    0.21741525
     atom   18 type  2   force =     0.00921944    0.00009144    0.14067638
     atom   19 type  2   force =     0.00047324   -0.00505594    0.14091755
     atom   20 type  2   force =     0.00061992    0.00495819    0.14047240
     atom   21 type  2   force =    -0.00325981    0.00000342    0.16201131
     atom   22 type  2   force =     0.00248187   -0.00001670    0.14776699
     atom   23 type  2   force =     0.00014712   -0.00135184    0.14753314
     atom   24 type  2   force =     0.00011156    0.00136473    0.14799411
     atom   25 type  2   force =     0.05890813   -0.04597394    0.12791852
     atom   26 type  2   force =    -0.00269707    0.01022212    0.09053646
     atom   27 type  2   force =    -0.02056158    0.03542307    0.10910833
     atom   28 type  2   force =     0.00798583    0.00001912    0.12578834
     atom   29 type  2   force =    -0.00064154    0.00008501    0.15046121
     atom   30 type  2   force =     0.00074326    0.00071424    0.15163862
     atom   31 type  2   force =    -0.00049403   -0.00079936    0.15105209
     atom   32 type  2   force =     0.00046353    0.00000030    0.15002118
     The core correction contribution to forces
     atom    1 type  1   force =    -0.00009529    0.00000092   -0.00012911
     atom    2 type  1   force =     0.00014282    0.00005765   -0.00002296
     atom    3 type  1   force =    -0.00005128   -0.00011366   -0.00005699
     atom    4 type  1   force =     0.00004600    0.00005445    0.00001014
     atom    5 type  1   force =     0.00000551   -0.00000004    0.00013513
     atom    6 type  1   force =    -0.00000568   -0.00001284    0.00008937
     atom    7 type  1   force =     0.00001172    0.00001010    0.00009793
     atom    8 type  1   force =    -0.00001016    0.00000270    0.00008115
     atom    9 type  1   force =    -0.00011465    0.00007173    0.00010896
     atom   10 type  1   force =     0.00010639    0.00005631    0.00015320
     atom   11 type  1   force =     0.00000932   -0.00012794    0.00013224
     atom   12 type  1   force =    -0.00000758   -0.00000031    0.00008460
     atom   13 type  1   force =     0.00004514   -0.00001936    0.00017500
     atom   14 type  1   force =    -0.00004610   -0.00003106    0.00003401
     atom   15 type  1   force =     0.00000956    0.00005150    0.00010399
     atom   16 type  1   force =    -0.00000787   -0.00000100    0.00007285
     atom   17 type  2   force =     0.00006144   -0.00000003   -0.00049163
     atom   18 type  2   force =    -0.00001424    0.00000203   -0.00035660
     atom   19 type  2   force =    -0.00000263    0.00000674   -0.00034547
     atom   20 type  2   force =     0.00000094   -0.00000872   -0.00036793
     atom   21 type  2   force =     0.00001659   -0.00000002   -0.00044873
     atom   22 type  2   force =    -0.00001567    0.00000009   -0.00041719
     atom   23 type  2   force =     0.00000174    0.00001007   -0.00042978
     atom   24 type  2   force =     0.00000189   -0.00001014   -0.00040443
     atom   25 type  2   force =    -0.00007063    0.00006558   -0.00033707
     atom   26 type  2   force =     0.00000325   -0.00002267   -0.00027576
     atom   27 type  2   force =     0.00004272   -0.00004362   -0.00030664
     atom   28 type  2   force =     0.00000077   -0.00000002   -0.00038521
     atom   29 type  2   force =     0.00000933   -0.00000774   -0.00044062
     atom   30 type  2   force =    -0.00000607   -0.00000116   -0.00043215
     atom   31 type  2   force =    -0.00000407    0.00000891   -0.00043642
     atom   32 type  2   force =     0.00000390    0.00000001   -0.00040368
     The Hubbard contrib.    to forces
     atom    1 type  1   force =     0.00000000    0.00000000    0.00000000
     atom    2 type  1   force =     0.00000000    0.00000000    0.00000000
     atom    3 type  1   force =     0.00000000    0.00000000    0.00000000
     atom    4 type  1   force =     0.00000000    0.00000000    0.00000000
     atom    5 type  1   force =     0.00000000    0.00000000    0.00000000
     atom    6 type  1   force =     0.00000000    0.00000000    0.00000000
     atom    7 type  1   force =     0.00000000    0.00000000    0.00000000
     atom    8 type  1   force =     0.00000000    0.00000000    0.00000000
     atom    9 type  1   force =     0.00000000    0.00000000    0.00000000
     atom   10 type  1   force =     0.00000000    0.00000000    0.00000000
     atom   11 type  1   force =     0.00000000    0.00000000    0.00000000
     atom   12 type  1   force =     0.00000000    0.00000000    0.00000000
     atom   13 type  1   force =     0.00000000    0.00000000    0.00000000
     atom   14 type  1   force =     0.00000000    0.00000000    0.00000000
     atom   15 type  1   force =     0.00000000    0.00000000    0.00000000
     atom   16 type  1   force =     0.00000000    0.00000000    0.00000000
     atom   17 type  2   force =     0.00000000    0.00000000    0.00000000
     atom   18 type  2   force =     0.00000000    0.00000000    0.00000000
     atom   19 type  2   force =     0.00000000    0.00000000    0.00000000
     atom   20 type  2   force =     0.00000000    0.00000000    0.00000000
     atom   21 type  2   force =     0.00000000    0.00000000    0.00000000
     atom   22 type  2   force =     0.00000000    0.00000000    0.00000000
     atom   23 type  2   force =     0.00000000    0.00000000    0.00000000
     atom   24 type  2   force =     0.00000000    0.00000000    0.00000000
     atom   25 type  2   force =     0.00000000    0.00000000    0.00000000
     atom   26 type  2   force =     0.00000000    0.00000000    0.00000000
     atom   27 type  2   force =     0.00000000    0.00000000    0.00000000
     atom   28 type  2   force =     0.00000000    0.00000000    0.00000000
     atom   29 type  2   force =     0.00000000    0.00000000    0.00000000
     atom   30 type  2   force =     0.00000000    0.00000000    0.00000000
     atom   31 type  2   force =     0.00000000    0.00000000    0.00000000
     atom   32 type  2   force =     0.00000000    0.00000000    0.00000000
     The SCF correction term to forces
     atom    1 type  1   force =     0.00005948   -0.00004641   -0.00014432
     atom    2 type  1   force =    -0.00005820   -0.00002064   -0.00015988
     atom    3 type  1   force =    -0.00002274    0.00006883   -0.00014098
     atom    4 type  1   force =     0.00002307   -0.00000077   -0.00015514
     atom    5 type  1   force =    -0.00003075    0.00000847    0.00014201
     atom    6 type  1   force =     0.00003123    0.00003024    0.00016583
     atom    7 type  1   force =    -0.00001850   -0.00003751    0.00013751
     atom    8 type  1   force =     0.00001592   -0.00000028    0.00018778
     atom    9 type  1   force =     0.00000961    0.00001104    0.00001469
     atom   10 type  1   force =    -0.00000882   -0.00004230   -0.00005063
     atom   11 type  1   force =     0.00004543    0.00002233   -0.00005300
     atom   12 type  1   force =    -0.00004512    0.00001137   -0.00004627
     atom   13 type  1   force =    -0.00003894   -0.00001348   -0.00000745
     atom   14 type  1   force =     0.00003956   -0.00000079   -0.00001386
     atom   15 type  1   force =    -0.00000872   -0.00001588    0.00000391
     atom   16 type  1   force =     0.00000788    0.00002849   -0.00000991
     atom   17 type  2   force =     0.00001494   -0.00000814   -0.00001734
     atom   18 type  2   force =    -0.00001461   -0.00000663   -0.00002057
     atom   19 type  2   force =    -0.00000115    0.00001555   -0.00002045
     atom   20 type  2   force =     0.00000114   -0.00000112   -0.00002054
     atom   21 type  2   force =    -0.00000266   -0.00000416    0.00002221
     atom   22 type  2   force =     0.00000280    0.00000525    0.00002685
     atom   23 type  2   force =    -0.00000791   -0.00000161    0.00002547
     atom   24 type  2   force =     0.00000844    0.00000097    0.00002176
     atom   25 type  2   force =    -0.00000674    0.00000084   -0.00005785
     atom   26 type  2   force =     0.00000603   -0.00001249   -0.00004171
     atom   27 type  2   force =     0.00001184    0.00000206   -0.00004387
     atom   28 type  2   force =    -0.00001183    0.00000929   -0.00004170
     atom   29 type  2   force =    -0.00000083    0.00000060    0.00004199
     atom   30 type  2   force =     0.00000077   -0.00000199    0.00003763
     atom   31 type  2   force =     0.00000209    0.00000031    0.00003808
     atom   32 type  2   force =    -0.00000204    0.00000108    0.00003495

     Total force =     0.008253     Total SCF correction =     0.000502

     Writing output data file ../tmp/GaN_exc1.save/
 
     init_run     :     80.13s CPU     80.89s WALL (       1 calls)
     electrons    :   4427.01s CPU   4449.81s WALL (       1 calls)
     forces       :     33.86s CPU     33.90s WALL (       1 calls)

     Called by init_run:
     wfcinit      :     76.96s CPU     77.63s WALL (       1 calls)
     wfcinit:atom :      1.10s CPU      1.12s WALL (      63 calls)
     wfcinit:wfcr :     70.06s CPU     70.29s WALL (      63 calls)
     potinit      :      0.91s CPU      0.93s WALL (       1 calls)
     hinit0       :      2.00s CPU      2.05s WALL (       1 calls)

     Called by electrons:
     c_bands      :   3891.20s CPU   3910.45s WALL (      26 calls)
     sum_band     :    531.69s CPU    534.44s WALL (      26 calls)
     v_of_rho     :      3.04s CPU      3.45s WALL (      27 calls)
     v_h          :      0.19s CPU      0.20s WALL (      27 calls)
     v_xc         :      2.95s CPU      3.37s WALL (      28 calls)
     mix_rho      :      1.06s CPU      1.42s WALL (      26 calls)

     Called by c_bands:
     init_us_2    :     61.87s CPU     61.92s WALL (    3402 calls)
     cegterg      :   3551.18s CPU   3570.04s WALL (    1638 calls)

     Called by sum_band:
     sum_band:wei :      0.00s CPU      0.00s WALL (      26 calls)
     sum_band:loo :    531.41s CPU    534.15s WALL (      26 calls)
     sum_band:buf :     12.64s CPU     13.04s WALL (    1638 calls)
     sum_band:ini :     29.78s CPU     29.80s WALL (    1638 calls)

     Called by *egterg:
     cdiaghg      :     65.69s CPU     65.90s WALL (    5376 calls)
     cegterg:over :    273.77s CPU    273.85s WALL (    3738 calls)
     cegterg:upda :    277.11s CPU    286.83s WALL (    3738 calls)
     cegterg:last :    260.48s CPU    260.52s WALL (    2810 calls)
     cdiaghg:chol :      4.15s CPU      4.19s WALL (    5376 calls)
     cdiaghg:inve :      1.61s CPU      1.62s WALL (    5376 calls)
     cdiaghg:para :     10.61s CPU     10.68s WALL (   10752 calls)
     h_psi        :   2597.01s CPU   2605.77s WALL (    5439 calls)
     g_psi        :     15.49s CPU     15.51s WALL (    3738 calls)

     Called by h_psi:
     h_psi:calbec :    331.41s CPU    331.50s WALL (    5439 calls)
     vloc_psi     :   1870.93s CPU   1878.82s WALL (    5439 calls)
     add_vuspsi   :    363.76s CPU    363.85s WALL (    5439 calls)

     General routines
     calbec       :    351.24s CPU    351.34s WALL (    5691 calls)
     fft          :      1.23s CPU      1.30s WALL (     280 calls)
     ffts         :      0.10s CPU      0.10s WALL (      26 calls)
     fftw         :   1753.28s CPU   1760.34s WALL ( 1395952 calls)
 
     Parallel routines
 
     PWSCF        :      1h15m CPU      1h16m WALL

 
   This run was terminated on:  22:44:54  28Mar2023            

=------------------------------------------------------------------------------=
   JOB DONE.
=------------------------------------------------------------------------------=
