
     Program BANDS v.6.6 starts on  6Mar2023 at 12:27:12 

     This program is part of the open-source Quantum ESPRESSO suite
     for quantum simulation of materials; please cite
         "P. Giannozzi et al., J. Phys.:Condens. Matter 21 395502 (2009);
         "P. Giannozzi et al., J. Phys.:Condens. Matter 29 465901 (2017);
          URL http://www.quantum-espresso.org", 
     in publications or presentations arising from this work. More details at
     http://www.quantum-espresso.org/quote

     Serial version
     Fft bands division:     nmany     =       1

     Reading xml data from directory:

     ./tmp/Si_exc2.save/

     IMPORTANT: XC functional enforced from input :
     Exchange-correlation= PBE
                           (   1   4   3   4   0   0   0)
     Any further DFT definition will be discarded
     Please, verify this is what you really want


     G-vector sticks info
     --------------------
     sticks:   dense  smooth     PW     G-vecs:    dense   smooth      PW
     Sum         301     301    109                 3383     3383     725

     Reading collected, re-writing distributed wavefunctions
     high-symmetry point:  0.5000 0.5000 0.5000   x coordinate   0.0000
     high-symmetry point:  0.0000 0.0000 0.0000   x coordinate   0.8660
     high-symmetry point:  0.0000 0.0000 1.0000   x coordinate   1.8660
     high-symmetry point:  0.0000 1.0000 1.0000   x coordinate   2.8660
     high-symmetry point:  0.0000 0.0000 0.0000   x coordinate   4.2802

     Plottable bands (eV) written to file bands.dat.gnu
     Bands written to file bands.dat

 **************************************************************************

                    xk=(   0.50000,   0.50000,   0.50000  )

     zone border point and non-symmorphic group 
     symmetry decomposition not available

 **************************************************************************

 **************************************************************************

                    xk=(   0.40000,   0.40000,   0.40000  )

     point group C_3v (3m)  
     there are  3 classes
     the character table:

       E     2C3   3s_v 
A_1    1.00  1.00  1.00
A_2    1.00  1.00 -1.00
E      2.00 -1.00  0.00

     the symmetry operations in each class and the name of the first element:

     E        1
                                                                 
     2C3      2    3
                                                                 
     3s_v     4    5    6
                                                                 

     Band symmetry, C_3v (3m)   point group:

     e(  1 -  1) =     -3.92737  eV     1   --> A_1  L_1       
     e(  2 -  2) =     -0.17100  eV     1   --> A_1  L_1       
     e(  3 -  4) =      4.86894  eV     2   --> E    L_3       
     e(  5 -  5) =      7.55807  eV     1   --> A_1  L_1       
     e(  6 -  7) =      9.39934  eV     2   --> E    L_3       
     e(  8 -  8) =     13.78606  eV     1   --> A_1  L_1       

 **************************************************************************

 **************************************************************************

                    xk=(   0.30000,   0.30000,   0.30000  )

     Band symmetry, C_3v (3m)   point group:

     e(  1 -  1) =     -4.65542  eV     1   --> A_1  L_1       
     e(  2 -  2) =      1.27115  eV     1   --> A_1  L_1       
     e(  3 -  4) =      5.07830  eV     2   --> E    L_3       
     e(  5 -  5) =      7.79446  eV     1   --> A_1  L_1       
     e(  6 -  7) =      9.50065  eV     2   --> E    L_3       
     e(  8 -  8) =     13.46545  eV     1   --> A_1  L_1       

 **************************************************************************

 **************************************************************************

                    xk=(   0.20000,   0.20000,   0.20000  )

     Band symmetry, C_3v (3m)   point group:

     e(  1 -  1) =     -5.25662  eV     1   --> A_1  L_1       
     e(  2 -  2) =      3.01959  eV     1   --> A_1  L_1       
     e(  3 -  4) =      5.40721  eV     2   --> E    L_3       
     e(  5 -  5) =      8.15198  eV     1   --> A_1  L_1       
     e(  6 -  7) =      9.31758  eV     2   --> E    L_3       
     e(  8 -  8) =     11.85463  eV     1   --> A_1  L_1       

 **************************************************************************

 **************************************************************************

                    xk=(   0.10000,   0.10000,   0.10000  )

     Band symmetry, C_3v (3m)   point group:

     e(  1 -  1) =     -5.63458  eV     1   --> A_1  L_1       
     e(  2 -  2) =      4.84452  eV     1   --> A_1  L_1       
     e(  3 -  4) =      5.77878  eV     2   --> E    L_3       
     e(  5 -  5) =      8.51196  eV     1   --> A_1  L_1       
     e(  6 -  7) =      8.81727  eV     2   --> E    L_3       
     e(  8 -  8) =     10.09797  eV     1   --> A_1  L_1       

 **************************************************************************

 **************************************************************************

                    xk=(   0.00000,   0.00000,   0.00000  )

     point group O_h (m-3m) 
     there are 10 classes
     the character table:

       E     8C3   3C2   6C4   6C2'  i     8S6   3s_h  6S4   6s_d 
A_1g   1.00  1.00  1.00  1.00  1.00  1.00  1.00  1.00  1.00  1.00
A_2g   1.00  1.00  1.00 -1.00 -1.00  1.00  1.00  1.00 -1.00 -1.00
E_g    2.00 -1.00  2.00  0.00  0.00  2.00 -1.00  2.00  0.00  0.00
T_1g   3.00  0.00 -1.00  1.00 -1.00  3.00  0.00 -1.00  1.00 -1.00
T_2g   3.00  0.00 -1.00 -1.00  1.00  3.00  0.00 -1.00 -1.00  1.00
A_1u   1.00  1.00  1.00  1.00  1.00 -1.00 -1.00 -1.00 -1.00 -1.00
A_2u   1.00  1.00  1.00 -1.00 -1.00 -1.00 -1.00 -1.00  1.00  1.00
E_u    2.00 -1.00  2.00  0.00  0.00 -2.00  1.00 -2.00  0.00  0.00
T_1u   3.00  0.00 -1.00  1.00 -1.00 -3.00  0.00  1.00 -1.00  1.00
T_2u   3.00  0.00 -1.00 -1.00  1.00 -3.00  0.00  1.00  1.00 -1.00

     the symmetry operations in each class and the name of the first element:

     E        1
                                                                 
     8C3     17   19   20   18   24   21   22   23
                                                                 
     3C2      2    4    3
                                                                 
     6C4      7    8   15   16   12   11
                                                                 
     6C2'     5    6   14   13   10    9
                                                                 
     i       25
                                                                 
     8S6     41   43   44   42   48   45   46   47
                                                                 
     3s_h    26   28   27
                                                                 
     6S4     31   32   39   40   36   35
                                                                 
     6s_d    29   30   38   37   34   33
                                                                 

     Band symmetry, O_h (m-3m)  point group:

     e(  1 -  1) =     -5.76262  eV     1   --> A_1g G_1   G_1+
     e(  2 -  4) =      5.97119  eV     3   --> T_2g G_25' G_5+
     e(  5 -  7) =      8.53320  eV     3   --> T_1u G_15  G_4-
     e(  8 -  8) =      9.15228  eV     1   --> A_2u G_2'  G_2-

 **************************************************************************

 **************************************************************************

                    xk=(   0.00000,   0.00000,   0.10000  )

     point group C_4v (4mm) 
     there are  5 classes
     the character table:

       E     2C4   C2    2s_v  2s_d 
A_1    1.00  1.00  1.00  1.00  1.00
A_2    1.00  1.00  1.00 -1.00 -1.00
B_1    1.00 -1.00  1.00  1.00 -1.00
B_2    1.00 -1.00  1.00 -1.00  1.00
E      2.00  0.00 -2.00  0.00  0.00

     the symmetry operations in each class and the name of the first element:

     E        1
                                                                 
     2C4      3    4
                                                                 
     C2       2
                                                                 
     2s_v     5    6
                                                                 
     2s_d     7    8
                                                                 

     Band symmetry, C_4v (4mm)  point group:

     e(  1 -  1) =     -5.71979  eV     1   --> A_1  G_1 D_1   
     e(  2 -  2) =      5.68924  eV     1   --> B_2  G_4 D_2'  
     e(  3 -  4) =      5.80206  eV     2   --> E    G_5 D_5   
     e(  5 -  5) =      8.43162  eV     1   --> A_1  G_1 D_1   
     e(  6 -  7) =      8.75515  eV     2   --> E    G_5 D_5   
     e(  8 -  8) =      9.42462  eV     1   --> B_2  G_4 D_2'  

 **************************************************************************

 **************************************************************************

                    xk=(   0.00000,   0.00000,   0.20000  )

     Band symmetry, C_4v (4mm)  point group:

     e(  1 -  1) =     -5.59159  eV     1   --> A_1  G_1 D_1   
     e(  2 -  2) =      5.03343  eV     1   --> B_2  G_4 D_2'  
     e(  3 -  4) =      5.41406  eV     2   --> E    G_5 D_5   
     e(  5 -  5) =      8.16728  eV     1   --> A_1  G_1 D_1   
     e(  6 -  7) =      9.30056  eV     2   --> E    G_5 D_5   
     e(  8 -  8) =      9.98859  eV     1   --> B_2  G_4 D_2'  

 **************************************************************************

 **************************************************************************

                    xk=(   0.00000,   0.00000,   0.30000  )

     Band symmetry, C_4v (4mm)  point group:

     e(  1 -  1) =     -5.37871  eV     1   --> A_1  G_1 D_1   
     e(  2 -  2) =      4.22958  eV     1   --> B_2  G_4 D_2'  
     e(  3 -  4) =      4.96358  eV     2   --> E    G_5 D_5   
     e(  5 -  5) =      7.82302  eV     1   --> A_1  G_1 D_1   
     e(  6 -  7) =     10.01024  eV     2   --> E    G_5 D_5   
     e(  8 -  8) =     10.27835  eV     1   --> B_2  G_4 D_2'  

 **************************************************************************

 **************************************************************************

                    xk=(   0.00000,   0.00000,   0.40000  )

     Band symmetry, C_4v (4mm)  point group:

     e(  1 -  1) =     -5.08239  eV     1   --> A_1  G_1 D_1   
     e(  2 -  2) =      3.37140  eV     1   --> B_2  G_4 D_2'  
     e(  3 -  4) =      4.52594  eV     2   --> E    G_5 D_5   
     e(  5 -  5) =      7.46753  eV     1   --> A_1  G_1 D_1   
     e(  6 -  6) =      9.84364  eV     1   --> B_2  G_4 D_2'  
     e(  7 -  8) =     10.80567  eV     2   --> E    G_5 D_5   

 **************************************************************************

 **************************************************************************

                    xk=(   0.00000,   0.00000,   0.50000  )

     Band symmetry, C_4v (4mm)  point group:

     e(  1 -  1) =     -4.70441  eV     1   --> A_1  G_1 D_1   
     e(  2 -  2) =      2.49412  eV     1   --> B_2  G_4 D_2'  
     e(  3 -  4) =      4.13331  eV     2   --> E    G_5 D_5   
     e(  5 -  5) =      7.14651  eV     1   --> A_1  G_1 D_1   
     e(  6 -  6) =      9.12888  eV     1   --> B_2  G_4 D_2'  
     e(  7 -  8) =     11.65144  eV     2   --> E    G_5 D_5   

 **************************************************************************

 **************************************************************************

                    xk=(   0.00000,   0.00000,   0.60000  )

     Band symmetry, C_4v (4mm)  point group:

     e(  1 -  1) =     -4.24743  eV     1   --> A_1  G_1 D_1   
     e(  2 -  2) =      1.61379  eV     1   --> B_2  G_4 D_2'  
     e(  3 -  4) =      3.80074  eV     2   --> E    G_5 D_5   
     e(  5 -  5) =      6.88701  eV     1   --> A_1  G_1 D_1   
     e(  6 -  6) =      8.43190  eV     1   --> B_2  G_4 D_2'  
     e(  7 -  8) =     12.52949  eV     2   --> E    G_5 D_5   

 **************************************************************************

 **************************************************************************

                    xk=(   0.00000,   0.00000,   0.70000  )

     Band symmetry, C_4v (4mm)  point group:

     e(  1 -  1) =     -3.71467  eV     1   --> A_1  G_1 D_1   
     e(  2 -  2) =      0.74223  eV     1   --> B_2  G_4 D_2'  
     e(  3 -  4) =      3.53663  eV     2   --> E    G_5 D_5   
     e(  5 -  5) =      6.70701  eV     1   --> A_1  G_1 D_1   
     e(  6 -  6) =      7.83122  eV     1   --> B_2  G_4 D_2'  
     e(  7 -  8) =     13.43303  eV     2   --> E    G_5 D_5   

 **************************************************************************

 **************************************************************************

                    xk=(   0.00000,   0.00000,   0.80000  )

     Band symmetry, C_4v (4mm)  point group:

     e(  1 -  1) =     -3.11048  eV     1   --> A_1  G_1 D_1   
     e(  2 -  2) =     -0.10974  eV     1   --> B_2  G_4 D_2'  
     e(  3 -  4) =      3.34552  eV     2   --> E    G_5 D_5   
     e(  5 -  5) =      6.61882  eV     1   --> A_1  G_1 D_1   
     e(  6 -  6) =      7.34922  eV     1   --> B_2  G_4 D_2'  
     e(  7 -  8) =     14.35396  eV     2   --> E    G_5 D_5   

 **************************************************************************

 **************************************************************************

                    xk=(   0.00000,   0.00000,   0.90000  )

     Band symmetry, C_4v (4mm)  point group:

     e(  1 -  1) =     -2.44035  eV     1   --> A_1  G_1 D_1   
     e(  2 -  2) =     -0.93094  eV     1   --> B_2  G_4 D_2'  
     e(  3 -  4) =      3.22990  eV     2   --> E    G_5 D_5   
     e(  5 -  5) =      6.63166  eV     1   --> A_1  G_1 D_1   
     e(  6 -  6) =      6.99083  eV     1   --> B_2  G_4 D_2'  
     e(  7 -  8) =     15.26682  eV     2   --> E    G_5 D_5   

 **************************************************************************

 **************************************************************************

                    xk=(   0.00000,   0.00000,   1.00000  )

     zone border point and non-symmorphic group 
     symmetry decomposition not available

 **************************************************************************

 **************************************************************************

                    xk=(   0.00000,   0.10000,   1.00000  )

     zone border point and non-symmorphic group 
     symmetry decomposition not available

 **************************************************************************

 **************************************************************************

                    xk=(   0.00000,   0.20000,   1.00000  )

     zone border point and non-symmorphic group 
     symmetry decomposition not available

 **************************************************************************

 **************************************************************************

                    xk=(   0.00000,   0.30000,   1.00000  )

     zone border point and non-symmorphic group 
     symmetry decomposition not available

 **************************************************************************

 **************************************************************************

                    xk=(   0.00000,   0.40000,   1.00000  )

     zone border point and non-symmorphic group 
     symmetry decomposition not available

 **************************************************************************

 **************************************************************************

                    xk=(   0.00000,   0.50000,   1.00000  )

     zone border point and non-symmorphic group 
     symmetry decomposition not available

 **************************************************************************

 **************************************************************************

                    xk=(   0.00000,   0.60000,   1.00000  )

     zone border point and non-symmorphic group 
     symmetry decomposition not available

 **************************************************************************

 **************************************************************************

                    xk=(   0.00000,   0.70000,   1.00000  )

     zone border point and non-symmorphic group 
     symmetry decomposition not available

 **************************************************************************

 **************************************************************************

                    xk=(   0.00000,   0.80000,   1.00000  )

     zone border point and non-symmorphic group 
     symmetry decomposition not available

 **************************************************************************

 **************************************************************************

                    xk=(   0.00000,   0.90000,   1.00000  )

     zone border point and non-symmorphic group 
     symmetry decomposition not available

 **************************************************************************

 **************************************************************************

                    xk=(   0.00000,   1.00000,   1.00000  )

     zone border point and non-symmorphic group 
     symmetry decomposition not available

 **************************************************************************

 **************************************************************************

                    xk=(   0.00000,   0.90000,   0.90000  )

     point group C_2v (mm2) 
     there are  4 classes
     the character table:

       E     C2    s_v   s_v' 
A_1    1.00  1.00  1.00  1.00
A_2    1.00  1.00 -1.00 -1.00
B_1    1.00 -1.00  1.00 -1.00
B_2    1.00 -1.00 -1.00  1.00

     the symmetry operations in each class and the name of the first element:

     E        1
                                                                 
     C2       2
                                                                 
     s_v      4
                                                                 
     s_v'     3
                                                                 

     Band symmetry, C_2v (mm2)  point group:

     e(  1 -  1) =     -1.75322  eV     1   --> A_1  D_1  S_1  
     e(  2 -  2) =     -1.61834  eV     1   --> B_1  D_3  S_3  
     e(  3 -  3) =      2.73060  eV     1   --> A_1  D_1  S_1  
     e(  4 -  4) =      3.25945  eV     1   --> A_2  D_2  S_2  
     e(  5 -  5) =      6.83199  eV     1   --> B_1  D_3  S_3  
     e(  6 -  6) =      7.50478  eV     1   --> A_1  D_1  S_1  
     e(  7 -  7) =     15.17314  eV     1   --> B_2  D_4  S_4  
     e(  8 -  8) =     15.43370  eV     1   --> B_1  D_3  S_3  

 **************************************************************************

 **************************************************************************

                    xk=(   0.00000,   0.80000,   0.80000  )

     Band symmetry, C_2v (mm2)  point group:

     e(  1 -  1) =     -1.93821  eV     1   --> A_1  D_1  S_1  
     e(  2 -  2) =     -1.34039  eV     1   --> B_1  D_3  S_3  
     e(  3 -  3) =      2.02516  eV     1   --> A_1  D_1  S_1  
     e(  4 -  4) =      3.46070  eV     1   --> A_2  D_2  S_2  
     e(  5 -  5) =      7.06398  eV     1   --> B_1  D_3  S_3  
     e(  6 -  6) =      9.13396  eV     1   --> A_1  D_1  S_1  
     e(  7 -  7) =     13.95507  eV     1   --> B_2  D_4  S_4  
     e(  8 -  8) =     14.52917  eV     1   -->   ?

 **************************************************************************

 **************************************************************************

                    xk=(   0.00000,   0.70000,   0.70000  )

     Band symmetry, C_2v (mm2)  point group:

     e(  1 -  1) =     -2.37455  eV     1   --> A_1  D_1  S_1  
     e(  2 -  2) =     -0.87882  eV     1   --> B_1  D_3  S_3  
     e(  3 -  3) =      1.68854  eV     1   --> A_1  D_1  S_1  
     e(  4 -  4) =      3.78299  eV     1   --> A_2  D_2  S_2  
     e(  5 -  5) =      7.43545  eV     1   --> B_1  D_3  S_3  
     e(  6 -  6) =     11.09730  eV     1   --> A_1  D_1  S_1  
     e(  7 -  7) =     12.75012  eV     1   --> B_2  D_4  S_4  
     e(  8 -  8) =     13.27616  eV     1   --> A_1  D_1  S_1  

 **************************************************************************

 **************************************************************************

                    xk=(   0.00000,   0.60000,   0.60000  )

     Band symmetry, C_2v (mm2)  point group:

     e(  1 -  1) =     -3.03516  eV     1   --> A_1  D_1  S_1  
     e(  2 -  2) =     -0.23676  eV     1   --> B_1  D_3  S_3  
     e(  3 -  3) =      1.82857  eV     1   --> A_1  D_1  S_1  
     e(  4 -  4) =      4.20168  eV     1   --> A_2  D_2  S_2  
     e(  5 -  5) =      7.91442  eV     1   --> B_1  D_3  S_3  
     e(  6 -  6) =     11.66103  eV     1   --> B_2  D_4  S_4  
     e(  7 -  7) =     11.97521  eV     1   --> A_1  D_1  S_1  
     e(  8 -  8) =     12.69793  eV     1   --> B_1  D_3  S_3  

 **************************************************************************

 **************************************************************************

                    xk=(   0.00000,   0.50000,   0.50000  )

     Band symmetry, C_2v (mm2)  point group:

     e(  1 -  1) =     -3.76580  eV     1   --> A_1  D_1  S_1  
     e(  2 -  2) =      0.58118  eV     1   --> B_1  D_3  S_3  
     e(  3 -  3) =      2.32627  eV     1   --> A_1  D_1  S_1  
     e(  4 -  4) =      4.67606  eV     1   --> A_2  D_2  S_2  
     e(  5 -  5) =      8.43071  eV     1   --> B_1  D_3  S_3  
     e(  6 -  6) =     10.71859  eV     1   --> B_2  D_4  S_4  
     e(  7 -  7) =     11.05585  eV     1   --> A_1  D_1  S_1  
     e(  8 -  8) =     12.01762  eV     1   --> B_1  D_3  S_3  

 **************************************************************************

 **************************************************************************

                    xk=(   0.00000,   0.40000,   0.40000  )

     Band symmetry, C_2v (mm2)  point group:

     e(  1 -  1) =     -4.44407  eV     1   --> A_1  D_1  S_1  
     e(  2 -  2) =      1.56744  eV     1   --> B_1  D_3  S_3  
     e(  3 -  3) =      3.05874  eV     1   --> A_1  D_1  S_1  
     e(  4 -  4) =      5.14447  eV     1   --> A_2  D_2  S_2  
     e(  5 -  5) =      8.84081  eV     1   --> B_1  D_3  S_3  
     e(  6 -  6) =      9.93776  eV     1   --> B_2  D_4  S_4  
     e(  7 -  7) =     10.24441  eV     1   --> A_1  D_1  S_1  
     e(  8 -  8) =     11.63601  eV     1   --> B_1  D_3  S_3  

 **************************************************************************

 **************************************************************************

                    xk=(   0.00000,   0.30000,   0.30000  )

     Band symmetry, C_2v (mm2)  point group:

     e(  1 -  1) =     -5.00664  eV     1   --> A_1  D_1  S_1  
     e(  2 -  2) =      2.70769  eV     1   --> B_1  D_3  S_3  
     e(  3 -  3) =      3.93398  eV     1   --> A_1  D_1  S_1  
     e(  4 -  4) =      5.53482  eV     1   --> A_2  D_2  S_2  
     e(  5 -  5) =      8.98216  eV     1   --> B_1  D_3  S_3  
     e(  6 -  6) =      9.32563  eV     1   --> B_2  D_4  S_4  
     e(  7 -  7) =      9.58372  eV     1   --> A_1  D_1  S_1  
     e(  8 -  8) =     11.53858  eV     1   --> B_1  D_3  S_3  

 **************************************************************************

 **************************************************************************

                    xk=(   0.00000,   0.20000,   0.20000  )

     Band symmetry, C_2v (mm2)  point group:

     e(  1 -  1) =     -5.42273  eV     1   --> A_1  D_1  S_1  
     e(  2 -  2) =      3.96946  eV     1   --> B_1  D_3  S_3  
     e(  3 -  3) =      4.84982  eV     1   --> A_1  D_1  S_1  
     e(  4 -  4) =      5.79648  eV     1   --> A_2  D_2  S_2  
     e(  5 -  5) =      8.88613  eV     1   --> B_2  D_4  S_4  
     e(  6 -  6) =      8.89998  eV     1   --> B_1  D_3  S_3  
     e(  7 -  7) =      9.06657  eV     1   --> A_1  D_1  S_1  
     e(  8 -  8) =     11.03000  eV     1   --> B_1  D_3  S_3  

 **************************************************************************

 **************************************************************************

                    xk=(   0.00000,   0.10000,   0.10000  )

     Band symmetry, C_2v (mm2)  point group:

     e(  1 -  1) =     -5.67712  eV     1   --> A_1  D_1  S_1  
     e(  2 -  2) =      5.24166  eV     1   --> B_1  D_3  S_3  
     e(  3 -  3) =      5.63264  eV     1   --> A_1  D_1  S_1  
     e(  4 -  4) =      5.93159  eV     1   --> A_2  D_2  S_2  
     e(  5 -  5) =      8.62151  eV     1   --> B_2  D_4  S_4  
     e(  6 -  6) =      8.69156  eV     1   --> A_1  D_1  S_1  
     e(  7 -  7) =      8.74217  eV     1   --> B_1  D_3  S_3  
     e(  8 -  8) =      9.79174  eV     1   --> B_1  D_3  S_3  

 **************************************************************************

 **************************************************************************

                    xk=(   0.00000,   0.00000,   0.00000  )

     point group O_h (m-3m) 
     there are 10 classes
     the character table:

       E     8C3   3C2   6C4   6C2'  i     8S6   3s_h  6S4   6s_d 
A_1g   1.00  1.00  1.00  1.00  1.00  1.00  1.00  1.00  1.00  1.00
A_2g   1.00  1.00  1.00 -1.00 -1.00  1.00  1.00  1.00 -1.00 -1.00
E_g    2.00 -1.00  2.00  0.00  0.00  2.00 -1.00  2.00  0.00  0.00
T_1g   3.00  0.00 -1.00  1.00 -1.00  3.00  0.00 -1.00  1.00 -1.00
T_2g   3.00  0.00 -1.00 -1.00  1.00  3.00  0.00 -1.00 -1.00  1.00
A_1u   1.00  1.00  1.00  1.00  1.00 -1.00 -1.00 -1.00 -1.00 -1.00
A_2u   1.00  1.00  1.00 -1.00 -1.00 -1.00 -1.00 -1.00  1.00  1.00
E_u    2.00 -1.00  2.00  0.00  0.00 -2.00  1.00 -2.00  0.00  0.00
T_1u   3.00  0.00 -1.00  1.00 -1.00 -3.00  0.00  1.00 -1.00  1.00
T_2u   3.00  0.00 -1.00 -1.00  1.00 -3.00  0.00  1.00  1.00 -1.00

     the symmetry operations in each class and the name of the first element:

     E        1
                                                                 
     8C3     17   19   20   18   24   21   22   23
                                                                 
     3C2      2    4    3
                                                                 
     6C4      7    8   15   16   12   11
                                                                 
     6C2'     5    6   14   13   10    9
                                                                 
     i       25
                                                                 
     8S6     41   43   44   42   48   45   46   47
                                                                 
     3s_h    26   28   27
                                                                 
     6S4     31   32   39   40   36   35
                                                                 
     6s_d    29   30   38   37   34   33
                                                                 

     Band symmetry, O_h (m-3m)  point group:

     e(  1 -  1) =     -5.76262  eV     1   --> A_1g G_1   G_1+
     e(  2 -  4) =      5.97119  eV     3   --> T_2g G_25' G_5+
     e(  5 -  7) =      8.53320  eV     3   --> T_1u G_15  G_4-
     e(  8 -  8) =      9.15228  eV     1   --> A_2u G_2'  G_2-

 **************************************************************************

     BANDS        :      0.62s CPU      0.45s WALL


   This run was terminated on:  12:27:12   6Mar2023            

=------------------------------------------------------------------------------=
   JOB DONE.
=------------------------------------------------------------------------------=
