
     Program PWSCF v.6.6 starts on  6Mar2023 at 12:23: 2 

     This program is part of the open-source Quantum ESPRESSO suite
     for quantum simulation of materials; please cite
         "P. Giannozzi et al., J. Phys.:Condens. Matter 21 395502 (2009);
         "P. Giannozzi et al., J. Phys.:Condens. Matter 29 465901 (2017);
          URL http://www.quantum-espresso.org", 
     in publications or presentations arising from this work. More details at
     http://www.quantum-espresso.org/quote

     Serial version
     Fft bands division:     nmany     =       1
     Waiting for input...
     Reading input from standard input

     Current dimensions of program PWSCF are:
     Max number of different atomic species (ntypx) = 10
     Max number of k-points (npk) =  40000
     Max angular momentum in pseudopotentials (lmaxx) =  3

     Atomic positions and unit cell read from directory:
     ./tmp/Si_exc2.save/


     G-vector sticks info
     --------------------
     sticks:   dense  smooth     PW     G-vecs:    dense   smooth      PW
     Sum         301     301    109                 3383     3383     725



     bravais-lattice index     =            2
     lattice parameter (alat)  =      10.3480  a.u.
     unit-cell volume          =     277.0188 (a.u.)^3
     number of atoms/cell      =            2
     number of atomic types    =            1
     number of electrons       =         8.00
     number of Kohn-Sham states=            8
     kinetic-energy cutoff     =      20.0000  Ry
     charge density cutoff     =      80.0000  Ry
     Exchange-correlation=  SLA  PW   PBE  PBE
                           (   1   4   3   4   0   0   0)

     celldm(1)=  10.348000  celldm(2)=   0.000000  celldm(3)=   0.000000
     celldm(4)=   0.000000  celldm(5)=   0.000000  celldm(6)=   0.000000

     crystal axes: (cart. coord. in units of alat)
               a(1) = (  -0.500000   0.000000   0.500000 )  
               a(2) = (   0.000000   0.500000   0.500000 )  
               a(3) = (  -0.500000   0.500000   0.000000 )  

     reciprocal axes: (cart. coord. in units 2 pi/alat)
               b(1) = ( -1.000000 -1.000000  1.000000 )  
               b(2) = (  1.000000  1.000000  1.000000 )  
               b(3) = ( -1.000000  1.000000 -1.000000 )  


     PseudoPot. # 1 for Si read from file:
     ../pseudo/Si.pbe-rrkj.UPF
     MD5 check sum: cf7ab5690cd9a85b22c4813f7e365554
     Pseudo is Norm-conserving, Zval =  4.0
     Generated by new atomic code, or converted to UPF format
     Using radial grid of  883 points,  3 beta functions with: 
                l(1) =   0
                l(2) =   0
                l(3) =   1

     atomic species   valence    mass     pseudopotential
        Si             4.00    28.08600     Si( 1.00)

     48 Sym. Ops., with inversion, found (24 have fractional translation)


                                    s                        frac. trans.

      isym =  1     identity                                     

 cryst.   s( 1) = (     1          0          0      )
                  (     0          1          0      )
                  (     0          0          1      )

 cart.    s( 1) = (  1.0000000  0.0000000  0.0000000 )
                  (  0.0000000  1.0000000  0.0000000 )
                  (  0.0000000  0.0000000  1.0000000 )


      isym =  2     180 deg rotation - cart. axis [0,0,1]        

 cryst.   s( 2) = (     0          1         -1      )
                  (     1          0         -1      )
                  (     0          0         -1      )

 cart.    s( 2) = ( -1.0000000  0.0000000  0.0000000 )
                  (  0.0000000 -1.0000000  0.0000000 )
                  (  0.0000000  0.0000000  1.0000000 )


      isym =  3     180 deg rotation - cart. axis [0,1,0]        

 cryst.   s( 3) = (    -1          0          0      )
                  (    -1          0          1      )
                  (    -1          1          0      )

 cart.    s( 3) = ( -1.0000000  0.0000000  0.0000000 )
                  (  0.0000000  1.0000000  0.0000000 )
                  (  0.0000000  0.0000000 -1.0000000 )


      isym =  4     180 deg rotation - cart. axis [1,0,0]        

 cryst.   s( 4) = (     0         -1          1      )
                  (     0         -1          0      )
                  (     1         -1          0      )

 cart.    s( 4) = (  1.0000000  0.0000000  0.0000000 )
                  (  0.0000000 -1.0000000  0.0000000 )
                  (  0.0000000  0.0000000 -1.0000000 )


      isym =  5     180 deg rotation - cart. axis [1,1,0]        

 cryst.   s( 5) = (     0         -1          0      )    f =(  0.2500000 )
                  (    -1          0          0      )       (  0.2500000 )
                  (     0          0         -1      )       (  0.2500000 )

 cart.    s( 5) = (  0.0000000  1.0000000  0.0000000 )    f =( -0.2500000 )
                  (  1.0000000  0.0000000  0.0000000 )       (  0.2500000 )
                  (  0.0000000  0.0000000 -1.0000000 )       (  0.2500000 )


      isym =  6     180 deg rotation - cart. axis [1,-1,0]       

 cryst.   s( 6) = (    -1          0          1      )    f =(  0.2500000 )
                  (     0         -1          1      )       (  0.2500000 )
                  (     0          0          1      )       (  0.2500000 )

 cart.    s( 6) = (  0.0000000 -1.0000000  0.0000000 )    f =( -0.2500000 )
                  ( -1.0000000  0.0000000  0.0000000 )       (  0.2500000 )
                  (  0.0000000  0.0000000 -1.0000000 )       (  0.2500000 )


      isym =  7      90 deg rotation - cart. axis [0,0,-1]       

 cryst.   s( 7) = (     0          1          0      )    f =(  0.2500000 )
                  (     0          1         -1      )       (  0.2500000 )
                  (    -1          1          0      )       (  0.2500000 )

 cart.    s( 7) = (  0.0000000  1.0000000  0.0000000 )    f =( -0.2500000 )
                  ( -1.0000000  0.0000000  0.0000000 )       (  0.2500000 )
                  (  0.0000000  0.0000000  1.0000000 )       (  0.2500000 )


      isym =  8      90 deg rotation - cart. axis [0,0,1]        

 cryst.   s( 8) = (     1          0         -1      )    f =(  0.2500000 )
                  (     1          0          0      )       (  0.2500000 )
                  (     1         -1          0      )       (  0.2500000 )

 cart.    s( 8) = (  0.0000000 -1.0000000  0.0000000 )    f =( -0.2500000 )
                  (  1.0000000  0.0000000  0.0000000 )       (  0.2500000 )
                  (  0.0000000  0.0000000  1.0000000 )       (  0.2500000 )


      isym =  9     180 deg rotation - cart. axis [1,0,1]        

 cryst.   s( 9) = (    -1          0          0      )    f =(  0.2500000 )
                  (     0          0         -1      )       (  0.2500000 )
                  (     0         -1          0      )       (  0.2500000 )

 cart.    s( 9) = (  0.0000000  0.0000000  1.0000000 )    f =( -0.2500000 )
                  (  0.0000000 -1.0000000  0.0000000 )       (  0.2500000 )
                  (  1.0000000  0.0000000  0.0000000 )       (  0.2500000 )


      isym = 10     180 deg rotation - cart. axis [-1,0,1]       

 cryst.   s(10) = (     1          0          0      )    f =(  0.2500000 )
                  (     1         -1          0      )       (  0.2500000 )
                  (     1          0         -1      )       (  0.2500000 )

 cart.    s(10) = (  0.0000000  0.0000000 -1.0000000 )    f =( -0.2500000 )
                  (  0.0000000 -1.0000000  0.0000000 )       (  0.2500000 )
                  ( -1.0000000  0.0000000  0.0000000 )       (  0.2500000 )


      isym = 11      90 deg rotation - cart. axis [0,1,0]        

 cryst.   s(11) = (     0          1         -1      )    f =(  0.2500000 )
                  (    -1          1          0      )       (  0.2500000 )
                  (     0          1          0      )       (  0.2500000 )

 cart.    s(11) = (  0.0000000  0.0000000  1.0000000 )    f =( -0.2500000 )
                  (  0.0000000  1.0000000  0.0000000 )       (  0.2500000 )
                  ( -1.0000000  0.0000000  0.0000000 )       (  0.2500000 )


      isym = 12      90 deg rotation - cart. axis [0,-1,0]       

 cryst.   s(12) = (     0         -1          1      )    f =(  0.2500000 )
                  (     0          0          1      )       (  0.2500000 )
                  (    -1          0          1      )       (  0.2500000 )

 cart.    s(12) = (  0.0000000  0.0000000 -1.0000000 )    f =( -0.2500000 )
                  (  0.0000000  1.0000000  0.0000000 )       (  0.2500000 )
                  (  1.0000000  0.0000000  0.0000000 )       (  0.2500000 )


      isym = 13     180 deg rotation - cart. axis [0,1,1]        

 cryst.   s(13) = (    -1          1          0      )    f =(  0.2500000 )
                  (     0          1          0      )       (  0.2500000 )
                  (     0          1         -1      )       (  0.2500000 )

 cart.    s(13) = ( -1.0000000  0.0000000  0.0000000 )    f =( -0.2500000 )
                  (  0.0000000  0.0000000  1.0000000 )       (  0.2500000 )
                  (  0.0000000  1.0000000  0.0000000 )       (  0.2500000 )


      isym = 14     180 deg rotation - cart. axis [0,1,-1]       

 cryst.   s(14) = (     0          0         -1      )    f =(  0.2500000 )
                  (     0         -1          0      )       (  0.2500000 )
                  (    -1          0          0      )       (  0.2500000 )

 cart.    s(14) = ( -1.0000000  0.0000000  0.0000000 )    f =( -0.2500000 )
                  (  0.0000000  0.0000000 -1.0000000 )       (  0.2500000 )
                  (  0.0000000 -1.0000000  0.0000000 )       (  0.2500000 )


      isym = 15      90 deg rotation - cart. axis [-1,0,0]       

 cryst.   s(15) = (     0          0          1      )    f =(  0.2500000 )
                  (    -1          0          1      )       (  0.2500000 )
                  (     0         -1          1      )       (  0.2500000 )

 cart.    s(15) = (  1.0000000  0.0000000  0.0000000 )    f =( -0.2500000 )
                  (  0.0000000  0.0000000  1.0000000 )       (  0.2500000 )
                  (  0.0000000 -1.0000000  0.0000000 )       (  0.2500000 )


      isym = 16      90 deg rotation - cart. axis [1,0,0]        

 cryst.   s(16) = (     1         -1          0      )    f =(  0.2500000 )
                  (     1          0         -1      )       (  0.2500000 )
                  (     1          0          0      )       (  0.2500000 )

 cart.    s(16) = (  1.0000000  0.0000000  0.0000000 )    f =( -0.2500000 )
                  (  0.0000000  0.0000000 -1.0000000 )       (  0.2500000 )
                  (  0.0000000  1.0000000  0.0000000 )       (  0.2500000 )


      isym = 17     120 deg rotation - cart. axis [-1,-1,-1]     

 cryst.   s(17) = (    -1          0          1      )
                  (    -1          1          0      )
                  (    -1          0          0      )

 cart.    s(17) = (  0.0000000  1.0000000  0.0000000 )
                  (  0.0000000  0.0000000  1.0000000 )
                  (  1.0000000  0.0000000  0.0000000 )


      isym = 18     120 deg rotation - cart. axis [-1,1,1]       

 cryst.   s(18) = (     0          1          0      )
                  (     0          0          1      )
                  (     1          0          0      )

 cart.    s(18) = (  0.0000000 -1.0000000  0.0000000 )
                  (  0.0000000  0.0000000  1.0000000 )
                  ( -1.0000000  0.0000000  0.0000000 )


      isym = 19     120 deg rotation - cart. axis [1,1,-1]       

 cryst.   s(19) = (     1          0         -1      )
                  (     0          0         -1      )
                  (     0          1         -1      )

 cart.    s(19) = (  0.0000000  1.0000000  0.0000000 )
                  (  0.0000000  0.0000000 -1.0000000 )
                  ( -1.0000000  0.0000000  0.0000000 )


      isym = 20     120 deg rotation - cart. axis [1,-1,1]       

 cryst.   s(20) = (     0         -1          0      )
                  (     1         -1          0      )
                  (     0         -1          1      )

 cart.    s(20) = (  0.0000000 -1.0000000  0.0000000 )
                  (  0.0000000  0.0000000 -1.0000000 )
                  (  1.0000000  0.0000000  0.0000000 )


      isym = 21     120 deg rotation - cart. axis [1,1,1]        

 cryst.   s(21) = (     0          0         -1      )
                  (     0          1         -1      )
                  (     1          0         -1      )

 cart.    s(21) = (  0.0000000  0.0000000  1.0000000 )
                  (  1.0000000  0.0000000  0.0000000 )
                  (  0.0000000  1.0000000  0.0000000 )


      isym = 22     120 deg rotation - cart. axis [-1,1,-1]      

 cryst.   s(22) = (    -1          1          0      )
                  (    -1          0          0      )
                  (    -1          0          1      )

 cart.    s(22) = (  0.0000000  0.0000000  1.0000000 )
                  ( -1.0000000  0.0000000  0.0000000 )
                  (  0.0000000 -1.0000000  0.0000000 )


      isym = 23     120 deg rotation - cart. axis [1,-1,-1]      

 cryst.   s(23) = (     0          0          1      )
                  (     1          0          0      )
                  (     0          1          0      )

 cart.    s(23) = (  0.0000000  0.0000000 -1.0000000 )
                  ( -1.0000000  0.0000000  0.0000000 )
                  (  0.0000000  1.0000000  0.0000000 )


      isym = 24     120 deg rotation - cart. axis [-1,-1,1]      

 cryst.   s(24) = (     1         -1          0      )
                  (     0         -1          1      )
                  (     0         -1          0      )

 cart.    s(24) = (  0.0000000  0.0000000 -1.0000000 )
                  (  1.0000000  0.0000000  0.0000000 )
                  (  0.0000000 -1.0000000  0.0000000 )


      isym = 25     inversion                                    

 cryst.   s(25) = (    -1          0          0      )    f =(  0.2500000 )
                  (     0         -1          0      )       (  0.2500000 )
                  (     0          0         -1      )       (  0.2500000 )

 cart.    s(25) = ( -1.0000000  0.0000000  0.0000000 )    f =( -0.2500000 )
                  (  0.0000000 -1.0000000  0.0000000 )       (  0.2500000 )
                  (  0.0000000  0.0000000 -1.0000000 )       (  0.2500000 )


      isym = 26     inv. 180 deg rotation - cart. axis [0,0,1]   

 cryst.   s(26) = (     0         -1          1      )    f =(  0.2500000 )
                  (    -1          0          1      )       (  0.2500000 )
                  (     0          0          1      )       (  0.2500000 )

 cart.    s(26) = (  1.0000000  0.0000000  0.0000000 )    f =( -0.2500000 )
                  (  0.0000000  1.0000000  0.0000000 )       (  0.2500000 )
                  (  0.0000000  0.0000000 -1.0000000 )       (  0.2500000 )


      isym = 27     inv. 180 deg rotation - cart. axis [0,1,0]   

 cryst.   s(27) = (     1          0          0      )    f =(  0.2500000 )
                  (     1          0         -1      )       (  0.2500000 )
                  (     1         -1          0      )       (  0.2500000 )

 cart.    s(27) = (  1.0000000  0.0000000  0.0000000 )    f =( -0.2500000 )
                  (  0.0000000 -1.0000000  0.0000000 )       (  0.2500000 )
                  (  0.0000000  0.0000000  1.0000000 )       (  0.2500000 )


      isym = 28     inv. 180 deg rotation - cart. axis [1,0,0]   

 cryst.   s(28) = (     0          1         -1      )    f =(  0.2500000 )
                  (     0          1          0      )       (  0.2500000 )
                  (    -1          1          0      )       (  0.2500000 )

 cart.    s(28) = ( -1.0000000  0.0000000  0.0000000 )    f =( -0.2500000 )
                  (  0.0000000  1.0000000  0.0000000 )       (  0.2500000 )
                  (  0.0000000  0.0000000  1.0000000 )       (  0.2500000 )


      isym = 29     inv. 180 deg rotation - cart. axis [1,1,0]   

 cryst.   s(29) = (     0          1          0      )
                  (     1          0          0      )
                  (     0          0          1      )

 cart.    s(29) = (  0.0000000 -1.0000000  0.0000000 )
                  ( -1.0000000  0.0000000  0.0000000 )
                  (  0.0000000  0.0000000  1.0000000 )


      isym = 30     inv. 180 deg rotation - cart. axis [1,-1,0]  

 cryst.   s(30) = (     1          0         -1      )
                  (     0          1         -1      )
                  (     0          0         -1      )

 cart.    s(30) = (  0.0000000  1.0000000  0.0000000 )
                  (  1.0000000  0.0000000  0.0000000 )
                  (  0.0000000  0.0000000  1.0000000 )


      isym = 31     inv.  90 deg rotation - cart. axis [0,0,-1]  

 cryst.   s(31) = (     0         -1          0      )
                  (     0         -1          1      )
                  (     1         -1          0      )

 cart.    s(31) = (  0.0000000 -1.0000000  0.0000000 )
                  (  1.0000000  0.0000000  0.0000000 )
                  (  0.0000000  0.0000000 -1.0000000 )


      isym = 32     inv.  90 deg rotation - cart. axis [0,0,1]   

 cryst.   s(32) = (    -1          0          1      )
                  (    -1          0          0      )
                  (    -1          1          0      )

 cart.    s(32) = (  0.0000000  1.0000000  0.0000000 )
                  ( -1.0000000  0.0000000  0.0000000 )
                  (  0.0000000  0.0000000 -1.0000000 )


      isym = 33     inv. 180 deg rotation - cart. axis [1,0,1]   

 cryst.   s(33) = (     1          0          0      )
                  (     0          0          1      )
                  (     0          1          0      )

 cart.    s(33) = (  0.0000000  0.0000000 -1.0000000 )
                  (  0.0000000  1.0000000  0.0000000 )
                  ( -1.0000000  0.0000000  0.0000000 )


      isym = 34     inv. 180 deg rotation - cart. axis [-1,0,1]  

 cryst.   s(34) = (    -1          0          0      )
                  (    -1          1          0      )
                  (    -1          0          1      )

 cart.    s(34) = (  0.0000000  0.0000000  1.0000000 )
                  (  0.0000000  1.0000000  0.0000000 )
                  (  1.0000000  0.0000000  0.0000000 )


      isym = 35     inv.  90 deg rotation - cart. axis [0,1,0]   

 cryst.   s(35) = (     0         -1          1      )
                  (     1         -1          0      )
                  (     0         -1          0      )

 cart.    s(35) = (  0.0000000  0.0000000 -1.0000000 )
                  (  0.0000000 -1.0000000  0.0000000 )
                  (  1.0000000  0.0000000  0.0000000 )


      isym = 36     inv.  90 deg rotation - cart. axis [0,-1,0]  

 cryst.   s(36) = (     0          1         -1      )
                  (     0          0         -1      )
                  (     1          0         -1      )

 cart.    s(36) = (  0.0000000  0.0000000  1.0000000 )
                  (  0.0000000 -1.0000000  0.0000000 )
                  ( -1.0000000  0.0000000  0.0000000 )


      isym = 37     inv. 180 deg rotation - cart. axis [0,1,1]   

 cryst.   s(37) = (     1         -1          0      )
                  (     0         -1          0      )
                  (     0         -1          1      )

 cart.    s(37) = (  1.0000000  0.0000000  0.0000000 )
                  (  0.0000000  0.0000000 -1.0000000 )
                  (  0.0000000 -1.0000000  0.0000000 )


      isym = 38     inv. 180 deg rotation - cart. axis [0,1,-1]  

 cryst.   s(38) = (     0          0          1      )
                  (     0          1          0      )
                  (     1          0          0      )

 cart.    s(38) = (  1.0000000  0.0000000  0.0000000 )
                  (  0.0000000  0.0000000  1.0000000 )
                  (  0.0000000  1.0000000  0.0000000 )


      isym = 39     inv.  90 deg rotation - cart. axis [-1,0,0]  

 cryst.   s(39) = (     0          0         -1      )
                  (     1          0         -1      )
                  (     0          1         -1      )

 cart.    s(39) = ( -1.0000000  0.0000000  0.0000000 )
                  (  0.0000000  0.0000000 -1.0000000 )
                  (  0.0000000  1.0000000  0.0000000 )


      isym = 40     inv.  90 deg rotation - cart. axis [1,0,0]   

 cryst.   s(40) = (    -1          1          0      )
                  (    -1          0          1      )
                  (    -1          0          0      )

 cart.    s(40) = ( -1.0000000  0.0000000  0.0000000 )
                  (  0.0000000  0.0000000  1.0000000 )
                  (  0.0000000 -1.0000000  0.0000000 )


      isym = 41     inv. 120 deg rotation - cart. axis [-1,-1,-1]

 cryst.   s(41) = (     1          0         -1      )    f =(  0.2500000 )
                  (     1         -1          0      )       (  0.2500000 )
                  (     1          0          0      )       (  0.2500000 )

 cart.    s(41) = (  0.0000000 -1.0000000  0.0000000 )    f =( -0.2500000 )
                  (  0.0000000  0.0000000 -1.0000000 )       (  0.2500000 )
                  ( -1.0000000  0.0000000  0.0000000 )       (  0.2500000 )


      isym = 42     inv. 120 deg rotation - cart. axis [-1,1,1]  

 cryst.   s(42) = (     0         -1          0      )    f =(  0.2500000 )
                  (     0          0         -1      )       (  0.2500000 )
                  (    -1          0          0      )       (  0.2500000 )

 cart.    s(42) = (  0.0000000  1.0000000  0.0000000 )    f =( -0.2500000 )
                  (  0.0000000  0.0000000 -1.0000000 )       (  0.2500000 )
                  (  1.0000000  0.0000000  0.0000000 )       (  0.2500000 )


      isym = 43     inv. 120 deg rotation - cart. axis [1,1,-1]  

 cryst.   s(43) = (    -1          0          1      )    f =(  0.2500000 )
                  (     0          0          1      )       (  0.2500000 )
                  (     0         -1          1      )       (  0.2500000 )

 cart.    s(43) = (  0.0000000 -1.0000000  0.0000000 )    f =( -0.2500000 )
                  (  0.0000000  0.0000000  1.0000000 )       (  0.2500000 )
                  (  1.0000000  0.0000000  0.0000000 )       (  0.2500000 )


      isym = 44     inv. 120 deg rotation - cart. axis [1,-1,1]  

 cryst.   s(44) = (     0          1          0      )    f =(  0.2500000 )
                  (    -1          1          0      )       (  0.2500000 )
                  (     0          1         -1      )       (  0.2500000 )

 cart.    s(44) = (  0.0000000  1.0000000  0.0000000 )    f =( -0.2500000 )
                  (  0.0000000  0.0000000  1.0000000 )       (  0.2500000 )
                  ( -1.0000000  0.0000000  0.0000000 )       (  0.2500000 )


      isym = 45     inv. 120 deg rotation - cart. axis [1,1,1]   

 cryst.   s(45) = (     0          0          1      )    f =(  0.2500000 )
                  (     0         -1          1      )       (  0.2500000 )
                  (    -1          0          1      )       (  0.2500000 )

 cart.    s(45) = (  0.0000000  0.0000000 -1.0000000 )    f =( -0.2500000 )
                  ( -1.0000000  0.0000000  0.0000000 )       (  0.2500000 )
                  (  0.0000000 -1.0000000  0.0000000 )       (  0.2500000 )


      isym = 46     inv. 120 deg rotation - cart. axis [-1,1,-1] 

 cryst.   s(46) = (     1         -1          0      )    f =(  0.2500000 )
                  (     1          0          0      )       (  0.2500000 )
                  (     1          0         -1      )       (  0.2500000 )

 cart.    s(46) = (  0.0000000  0.0000000 -1.0000000 )    f =( -0.2500000 )
                  (  1.0000000  0.0000000  0.0000000 )       (  0.2500000 )
                  (  0.0000000  1.0000000  0.0000000 )       (  0.2500000 )


      isym = 47     inv. 120 deg rotation - cart. axis [1,-1,-1] 

 cryst.   s(47) = (     0          0         -1      )    f =(  0.2500000 )
                  (    -1          0          0      )       (  0.2500000 )
                  (     0         -1          0      )       (  0.2500000 )

 cart.    s(47) = (  0.0000000  0.0000000  1.0000000 )    f =( -0.2500000 )
                  (  1.0000000  0.0000000  0.0000000 )       (  0.2500000 )
                  (  0.0000000 -1.0000000  0.0000000 )       (  0.2500000 )


      isym = 48     inv. 120 deg rotation - cart. axis [-1,-1,1] 

 cryst.   s(48) = (    -1          1          0      )    f =(  0.2500000 )
                  (     0          1         -1      )       (  0.2500000 )
                  (     0          1          0      )       (  0.2500000 )

 cart.    s(48) = (  0.0000000  0.0000000  1.0000000 )    f =( -0.2500000 )
                  ( -1.0000000  0.0000000  0.0000000 )       (  0.2500000 )
                  (  0.0000000  1.0000000  0.0000000 )       (  0.2500000 )


     point group O_h (m-3m) 
     there are 10 classes
     the character table:

       E     8C3   3C2   6C4   6C2'  i     8S6   3s_h  6S4   6s_d 
A_1g   1.00  1.00  1.00  1.00  1.00  1.00  1.00  1.00  1.00  1.00
A_2g   1.00  1.00  1.00 -1.00 -1.00  1.00  1.00  1.00 -1.00 -1.00
E_g    2.00 -1.00  2.00  0.00  0.00  2.00 -1.00  2.00  0.00  0.00
T_1g   3.00  0.00 -1.00  1.00 -1.00  3.00  0.00 -1.00  1.00 -1.00
T_2g   3.00  0.00 -1.00 -1.00  1.00  3.00  0.00 -1.00 -1.00  1.00
A_1u   1.00  1.00  1.00  1.00  1.00 -1.00 -1.00 -1.00 -1.00 -1.00
A_2u   1.00  1.00  1.00 -1.00 -1.00 -1.00 -1.00 -1.00  1.00  1.00
E_u    2.00 -1.00  2.00  0.00  0.00 -2.00  1.00 -2.00  0.00  0.00
T_1u   3.00  0.00 -1.00  1.00 -1.00 -3.00  0.00  1.00 -1.00  1.00
T_2u   3.00  0.00 -1.00 -1.00  1.00 -3.00  0.00  1.00  1.00 -1.00

     the symmetry operations in each class and the name of the first element:

     E        1
          identity                                               
     8C3     17   19   20   18   24   21   22   23
          120 deg rotation - cart. axis [-1,-1,-1]               
     3C2      2    4    3
          180 deg rotation - cart. axis [0,0,1]                  
     6C4      7    8   15   16   12   11
           90 deg rotation - cart. axis [0,0,-1]                 
     6C2'     5    6   14   13   10    9
          180 deg rotation - cart. axis [1,1,0]                  
     i       25
          inversion                                              
     8S6     41   43   44   42   48   45   46   47
          inv. 120 deg rotation - cart. axis [-1,-1,-1]          
     3s_h    26   28   27
          inv. 180 deg rotation - cart. axis [0,0,1]             
     6S4     31   32   39   40   36   35
          inv.  90 deg rotation - cart. axis [0,0,-1]            
     6s_d    29   30   38   37   34   33
          inv. 180 deg rotation - cart. axis [1,1,0]             

   Cartesian axes

     site n.     atom                  positions (alat units)
         1           Si  tau(   1) = (   0.0000000   0.0000000   0.0000000  )
         2           Si  tau(   2) = (   0.2500000   0.2500000   0.2500000  )

   Crystallographic axes

     site n.     atom                  positions (cryst. coord.)
         1           Si  tau(   1) = (  0.0000000  0.0000000  0.0000000  )
         2           Si  tau(   2) = ( -0.2500000  0.7500000 -0.2500000  )

     number of k points=    36
                       cart. coord. in units 2pi/alat
        k(    1) = (   0.5000000   0.5000000   0.5000000), wk =   0.0030030
        k(    2) = (   0.4000000   0.4000000   0.4000000), wk =   0.0060060
        k(    3) = (   0.3000000   0.3000000   0.3000000), wk =   0.0090090
        k(    4) = (   0.2000000   0.2000000   0.2000000), wk =   0.0120120
        k(    5) = (   0.1000000   0.1000000   0.1000000), wk =   0.0150150
        k(    6) = (   0.0000000   0.0000000   0.0000000), wk =   0.0180180
        k(    7) = (   0.0000000   0.0000000   0.1000000), wk =   0.0210210
        k(    8) = (   0.0000000   0.0000000   0.2000000), wk =   0.0240240
        k(    9) = (   0.0000000   0.0000000   0.3000000), wk =   0.0270270
        k(   10) = (   0.0000000   0.0000000   0.4000000), wk =   0.0300300
        k(   11) = (   0.0000000   0.0000000   0.5000000), wk =   0.0330330
        k(   12) = (   0.0000000   0.0000000   0.6000000), wk =   0.0360360
        k(   13) = (   0.0000000   0.0000000   0.7000000), wk =   0.0390390
        k(   14) = (   0.0000000   0.0000000   0.8000000), wk =   0.0420420
        k(   15) = (   0.0000000   0.0000000   0.9000000), wk =   0.0450450
        k(   16) = (   0.0000000   0.0000000   1.0000000), wk =   0.0480480
        k(   17) = (   0.0000000   0.1000000   1.0000000), wk =   0.0510511
        k(   18) = (   0.0000000   0.2000000   1.0000000), wk =   0.0540541
        k(   19) = (   0.0000000   0.3000000   1.0000000), wk =   0.0570571
        k(   20) = (   0.0000000   0.4000000   1.0000000), wk =   0.0600601
        k(   21) = (   0.0000000   0.5000000   1.0000000), wk =   0.0630631
        k(   22) = (   0.0000000   0.6000000   1.0000000), wk =   0.0660661
        k(   23) = (   0.0000000   0.7000000   1.0000000), wk =   0.0690691
        k(   24) = (   0.0000000   0.8000000   1.0000000), wk =   0.0720721
        k(   25) = (   0.0000000   0.9000000   1.0000000), wk =   0.0750751
        k(   26) = (   0.0000000   1.0000000   1.0000000), wk =   0.0780781
        k(   27) = (   0.0000000   0.9000000   0.9000000), wk =   0.0810811
        k(   28) = (   0.0000000   0.8000000   0.8000000), wk =   0.0840841
        k(   29) = (   0.0000000   0.7000000   0.7000000), wk =   0.0870871
        k(   30) = (   0.0000000   0.6000000   0.6000000), wk =   0.0900901
        k(   31) = (   0.0000000   0.5000000   0.5000000), wk =   0.0930931
        k(   32) = (   0.0000000   0.4000000   0.4000000), wk =   0.0960961
        k(   33) = (   0.0000000   0.3000000   0.3000000), wk =   0.0990991
        k(   34) = (   0.0000000   0.2000000   0.2000000), wk =   0.1021021
        k(   35) = (   0.0000000   0.1000000   0.1000000), wk =   0.1051051
        k(   36) = (   0.0000000   0.0000000   0.0000000), wk =   0.1081081

                       cryst. coord.
        k(    1) = (   0.0000000   0.5000000   0.0000000), wk =   0.0030030
        k(    2) = (   0.0000000   0.4000000   0.0000000), wk =   0.0060060
        k(    3) = (   0.0000000   0.3000000   0.0000000), wk =   0.0090090
        k(    4) = (   0.0000000   0.2000000   0.0000000), wk =   0.0120120
        k(    5) = (   0.0000000   0.1000000   0.0000000), wk =   0.0150150
        k(    6) = (   0.0000000   0.0000000   0.0000000), wk =   0.0180180
        k(    7) = (   0.0500000   0.0500000   0.0000000), wk =   0.0210210
        k(    8) = (   0.1000000   0.1000000   0.0000000), wk =   0.0240240
        k(    9) = (   0.1500000   0.1500000   0.0000000), wk =   0.0270270
        k(   10) = (   0.2000000   0.2000000   0.0000000), wk =   0.0300300
        k(   11) = (   0.2500000   0.2500000   0.0000000), wk =   0.0330330
        k(   12) = (   0.3000000   0.3000000   0.0000000), wk =   0.0360360
        k(   13) = (   0.3500000   0.3500000   0.0000000), wk =   0.0390390
        k(   14) = (   0.4000000   0.4000000   0.0000000), wk =   0.0420420
        k(   15) = (   0.4500000   0.4500000   0.0000000), wk =   0.0450450
        k(   16) = (   0.5000000   0.5000000   0.0000000), wk =   0.0480480
        k(   17) = (   0.5000000   0.5500000   0.0500000), wk =   0.0510511
        k(   18) = (   0.5000000   0.6000000   0.1000000), wk =   0.0540541
        k(   19) = (   0.5000000   0.6500000   0.1500000), wk =   0.0570571
        k(   20) = (   0.5000000   0.7000000   0.2000000), wk =   0.0600601
        k(   21) = (   0.5000000   0.7500000   0.2500000), wk =   0.0630631
        k(   22) = (   0.5000000   0.8000000   0.3000000), wk =   0.0660661
        k(   23) = (   0.5000000   0.8500000   0.3500000), wk =   0.0690691
        k(   24) = (   0.5000000   0.9000000   0.4000000), wk =   0.0720721
        k(   25) = (   0.5000000   0.9500000   0.4500000), wk =   0.0750751
        k(   26) = (   0.5000000   1.0000000   0.5000000), wk =   0.0780781
        k(   27) = (   0.4500000   0.9000000   0.4500000), wk =   0.0810811
        k(   28) = (   0.4000000   0.8000000   0.4000000), wk =   0.0840841
        k(   29) = (   0.3500000   0.7000000   0.3500000), wk =   0.0870871
        k(   30) = (   0.3000000   0.6000000   0.3000000), wk =   0.0900901
        k(   31) = (   0.2500000   0.5000000   0.2500000), wk =   0.0930931
        k(   32) = (   0.2000000   0.4000000   0.2000000), wk =   0.0960961
        k(   33) = (   0.1500000   0.3000000   0.1500000), wk =   0.0990991
        k(   34) = (   0.1000000   0.2000000   0.1000000), wk =   0.1021021
        k(   35) = (   0.0500000   0.1000000   0.0500000), wk =   0.1051051
        k(   36) = (   0.0000000   0.0000000   0.0000000), wk =   0.1081081

     Dense  grid:     3383 G-vectors     FFT dimensions: (  24,  24,  24)

     Dynamical RAM for                 wfc:       0.05 MB

     Dynamical RAM for     wfc (w. buffer):       0.05 MB

     Dynamical RAM for           str. fact:       0.05 MB

     Dynamical RAM for           local pot:       0.00 MB

     Dynamical RAM for          nlocal pot:       0.06 MB

     Dynamical RAM for                qrad:       0.12 MB

     Dynamical RAM for          rho,v,vnew:       0.47 MB

     Dynamical RAM for           G-vectors:       0.22 MB

     Dynamical RAM for          h,s,v(r/c):       0.01 MB

     Dynamical RAM for          <psi|beta>:       0.00 MB

     Dynamical RAM for                 psi:       0.10 MB

     Dynamical RAM for                hpsi:       0.10 MB

     Dynamical RAM for      wfcinit/wfcrot:       0.10 MB

     Estimated static dynamical RAM per process >       1.61 MB

     Estimated max dynamical RAM per process >       1.83 MB

     The potential is recalculated from file :
     ./tmp/Si_exc2.save/charge-density

     Starting wfcs are    8 randomized atomic wfcs

     Band Structure Calculation
     Davidson diagonalization with overlap

     Computing kpt #:     1  of    36
     total cpu time spent up to now is        0.3 secs

     Computing kpt #:     2  of    36
     total cpu time spent up to now is        0.3 secs

     Computing kpt #:     3  of    36
     total cpu time spent up to now is        0.4 secs

     Computing kpt #:     4  of    36
     total cpu time spent up to now is        0.4 secs

     Computing kpt #:     5  of    36
     total cpu time spent up to now is        0.5 secs

     Computing kpt #:     6  of    36
     total cpu time spent up to now is        0.5 secs

     Computing kpt #:     7  of    36
     total cpu time spent up to now is        0.5 secs

     Computing kpt #:     8  of    36
     total cpu time spent up to now is        0.6 secs

     Computing kpt #:     9  of    36
     total cpu time spent up to now is        0.6 secs

     Computing kpt #:    10  of    36
     total cpu time spent up to now is        0.7 secs

     Computing kpt #:    11  of    36
     total cpu time spent up to now is        0.7 secs

     Computing kpt #:    12  of    36
     total cpu time spent up to now is        0.8 secs

     Computing kpt #:    13  of    36
     total cpu time spent up to now is        0.8 secs

     Computing kpt #:    14  of    36
     total cpu time spent up to now is        0.8 secs

     Computing kpt #:    15  of    36
     total cpu time spent up to now is        0.9 secs

     Computing kpt #:    16  of    36
     total cpu time spent up to now is        0.9 secs

     Computing kpt #:    17  of    36
     total cpu time spent up to now is        1.0 secs

     Computing kpt #:    18  of    36
     total cpu time spent up to now is        1.0 secs

     Computing kpt #:    19  of    36
     total cpu time spent up to now is        1.1 secs

     Computing kpt #:    20  of    36
     total cpu time spent up to now is        1.1 secs

     Computing kpt #:    21  of    36
     total cpu time spent up to now is        1.1 secs

     Computing kpt #:    22  of    36
     total cpu time spent up to now is        1.2 secs

     Computing kpt #:    23  of    36
     total cpu time spent up to now is        1.2 secs

     Computing kpt #:    24  of    36
     total cpu time spent up to now is        1.3 secs

     Computing kpt #:    25  of    36
     total cpu time spent up to now is        1.3 secs

     Computing kpt #:    26  of    36
     total cpu time spent up to now is        1.4 secs

     Computing kpt #:    27  of    36
     total cpu time spent up to now is        1.4 secs

     Computing kpt #:    28  of    36
     total cpu time spent up to now is        1.5 secs

     Computing kpt #:    29  of    36
     total cpu time spent up to now is        1.6 secs

     Computing kpt #:    30  of    36
     total cpu time spent up to now is        1.6 secs

     Computing kpt #:    31  of    36
     total cpu time spent up to now is        1.7 secs

     Computing kpt #:    32  of    36
     total cpu time spent up to now is        1.7 secs

     Computing kpt #:    33  of    36
     total cpu time spent up to now is        1.7 secs

     Computing kpt #:    34  of    36
     total cpu time spent up to now is        1.8 secs

     Computing kpt #:    35  of    36
     total cpu time spent up to now is        1.8 secs

     Computing kpt #:    36  of    36
     total cpu time spent up to now is        1.9 secs

     ethr =  1.25E-08,  avg # of iterations = 22.3

     total cpu time spent up to now is        1.9 secs

     End of band structure calculation

          k = 0.5000 0.5000 0.5000 (   410 PWs)   bands (ev):

    -3.4898  -0.8499   4.7986   4.7986   7.4771   9.3295   9.3295  13.6870

          k = 0.4000 0.4000 0.4000 (   422 PWs)   bands (ev):

    -3.9274  -0.1710   4.8689   4.8689   7.5581   9.3993   9.3993  13.7861

          k = 0.3000 0.3000 0.3000 (   419 PWs)   bands (ev):

    -4.6554   1.2711   5.0783   5.0783   7.7945   9.5006   9.5006  13.4654

          k = 0.2000 0.2000 0.2000 (   411 PWs)   bands (ev):

    -5.2566   3.0196   5.4072   5.4072   8.1520   9.3176   9.3176  11.8546

          k = 0.1000 0.1000 0.1000 (   417 PWs)   bands (ev):

    -5.6346   4.8445   5.7788   5.7788   8.5120   8.8173   8.8173  10.0980

          k = 0.0000 0.0000 0.0000 (   411 PWs)   bands (ev):

    -5.7626   5.9712   5.9712   5.9712   8.5332   8.5332   8.5332   9.1523

          k = 0.0000 0.0000 0.1000 (   411 PWs)   bands (ev):

    -5.7198   5.6892   5.8021   5.8021   8.4316   8.7552   8.7552   9.4246

          k = 0.0000 0.0000 0.2000 (   415 PWs)   bands (ev):

    -5.5916   5.0334   5.4141   5.4141   8.1673   9.3006   9.3006   9.9886

          k = 0.0000 0.0000 0.3000 (   415 PWs)   bands (ev):

    -5.3787   4.2296   4.9636   4.9636   7.8230  10.0102  10.0102  10.2783

          k = 0.0000 0.0000 0.4000 (   415 PWs)   bands (ev):

    -5.0824   3.3714   4.5259   4.5259   7.4675   9.8436  10.8057  10.8057

          k = 0.0000 0.0000 0.5000 (   415 PWs)   bands (ev):

    -4.7044   2.4941   4.1333   4.1333   7.1465   9.1289  11.6514  11.6514

          k = 0.0000 0.0000 0.6000 (   431 PWs)   bands (ev):

    -4.2474   1.6138   3.8007   3.8007   6.8870   8.4319  12.5295  12.5295

          k = 0.0000 0.0000 0.7000 (   432 PWs)   bands (ev):

    -3.7147   0.7422   3.5366   3.5366   6.7070   7.8312  13.4330  13.4330

          k = 0.0000 0.0000 0.8000 (   428 PWs)   bands (ev):

    -3.1105  -0.1097   3.3455   3.3455   6.6188   7.3492  14.3540  14.3540

          k = 0.0000 0.0000 0.9000 (   424 PWs)   bands (ev):

    -2.4403  -0.9309   3.2299   3.2299   6.6317   6.9908  15.2668  15.2668

          k = 0.0000 0.0000 1.0000 (   444 PWs)   bands (ev):

    -1.7112  -1.7112   3.1908   3.1908   6.7533   6.7533  15.8802  15.8802

          k = 0.0000 0.1000 1.0000 (   432 PWs)   bands (ev):

    -1.6975  -1.6975   3.0724   3.0724   6.9805   6.9805  15.4606  15.4606

          k = 0.0000 0.2000 1.0000 (   420 PWs)   bands (ev):

    -1.6606  -1.6606   2.8005   2.8005   7.5811   7.5811  14.3473  14.3473

          k = 0.0000 0.3000 1.0000 (   418 PWs)   bands (ev):

    -1.6127  -1.6127   2.5136   2.5136   8.4223   8.4223  13.0790  13.0790

          k = 0.0000 0.4000 1.0000 (   422 PWs)   bands (ev):

    -1.5718  -1.5718   2.3070   2.3070   9.4091   9.4091  11.8351  11.8351

          k = 0.0000 0.5000 1.0000 (   412 PWs)   bands (ev):

    -1.5556  -1.5556   2.2326   2.2326  10.2480  10.2480  10.9113  10.9113

          k = 0.0000 0.6000 1.0000 (   422 PWs)   bands (ev):

    -1.5718  -1.5718   2.3070   2.3070   9.4091   9.4091  11.8351  11.8351

          k = 0.0000 0.7000 1.0000 (   418 PWs)   bands (ev):

    -1.6127  -1.6127   2.5136   2.5136   8.4223   8.4223  13.0790  13.0790

          k = 0.0000 0.8000 1.0000 (   420 PWs)   bands (ev):

    -1.6606  -1.6606   2.8005   2.8005   7.5811   7.5811  14.3473  14.3473

          k = 0.0000 0.9000 1.0000 (   432 PWs)   bands (ev):

    -1.6975  -1.6975   3.0724   3.0724   6.9805   6.9805  15.4606  15.4606

          k = 0.0000 1.0000 1.0000 (   444 PWs)   bands (ev):

    -1.7112  -1.7112   3.1908   3.1908   6.7533   6.7533  15.8802  15.8802

          k = 0.0000 0.9000 0.9000 (   428 PWs)   bands (ev):

    -1.7532  -1.6183   2.7306   3.2594   6.8320   7.5048  15.1731  15.4337

          k = 0.0000 0.8000 0.8000 (   432 PWs)   bands (ev):

    -1.9382  -1.3404   2.0252   3.4607   7.0640   9.1340  13.9551  14.5292

          k = 0.0000 0.7000 0.7000 (   417 PWs)   bands (ev):

    -2.3746  -0.8788   1.6885   3.7830   7.4355  11.0973  12.7501  13.2762

          k = 0.0000 0.6000 0.6000 (   409 PWs)   bands (ev):

    -3.0352  -0.2368   1.8286   4.2017   7.9144  11.6610  11.9752  12.6979

          k = 0.0000 0.5000 0.5000 (   413 PWs)   bands (ev):

    -3.7658   0.5812   2.3263   4.6761   8.4307  10.7186  11.0559  12.0176

          k = 0.0000 0.4000 0.4000 (   411 PWs)   bands (ev):

    -4.4441   1.5674   3.0587   5.1445   8.8408   9.9378  10.2444  11.6360

          k = 0.0000 0.3000 0.3000 (   409 PWs)   bands (ev):

    -5.0066   2.7077   3.9340   5.5348   8.9822   9.3256   9.5837  11.5386

          k = 0.0000 0.2000 0.2000 (   411 PWs)   bands (ev):

    -5.4227   3.9695   4.8498   5.7965   8.8861   8.9000   9.0666  11.0300

          k = 0.0000 0.1000 0.1000 (   415 PWs)   bands (ev):

    -5.6771   5.2417   5.6326   5.9316   8.6215   8.6916   8.7422   9.7917

          k = 0.0000 0.0000 0.0000 (   411 PWs)   bands (ev):

    -5.7626   5.9712   5.9712   5.9712   8.5332   8.5332   8.5332   9.1523

     Writing output data file ./tmp/Si_exc2.save/

     init_run     :      0.02s CPU      0.03s WALL (       1 calls)
     electrons    :     19.35s CPU      1.62s WALL (       1 calls)

     Called by init_run:
     wfcinit      :      0.00s CPU      0.00s WALL (       1 calls)
     wfcinit:atom :      0.01s CPU      0.00s WALL (      36 calls)
     wfcinit:wfcr :      1.11s CPU      0.09s WALL (      36 calls)
     potinit      :      0.00s CPU      0.00s WALL (       1 calls)
     hinit0       :      0.02s CPU      0.02s WALL (       1 calls)

     Called by electrons:
     c_bands      :     19.35s CPU      1.62s WALL (       1 calls)
     v_of_rho     :      0.00s CPU      0.00s WALL (       1 calls)
     v_h          :      0.00s CPU      0.00s WALL (       1 calls)
     v_xc         :      0.00s CPU      0.00s WALL (       1 calls)

     Called by c_bands:
     init_us_2    :      0.00s CPU      0.00s WALL (      36 calls)
     cegterg      :     18.18s CPU      1.52s WALL (      55 calls)

     Called by sum_band:

     Called by *egterg:
     cdiaghg      :      0.87s CPU      0.12s WALL (     839 calls)
     cegterg:over :      0.50s CPU      0.02s WALL (     803 calls)
     cegterg:upda :      0.10s CPU      0.02s WALL (     803 calls)
     cegterg:last :      1.89s CPU      0.03s WALL (     543 calls)
     h_psi        :     15.80s CPU      1.38s WALL (     894 calls)
     g_psi        :      0.02s CPU      0.01s WALL (     803 calls)

     Called by h_psi:
     h_psi:calbec :      0.92s CPU      0.02s WALL (     894 calls)
     vloc_psi     :     13.36s CPU      1.34s WALL (     894 calls)
     add_vuspsi   :      1.51s CPU      0.01s WALL (     894 calls)

     General routines
     calbec       :      0.88s CPU      0.02s WALL (     894 calls)
     fft          :      0.00s CPU      0.00s WALL (      10 calls)
     fftw         :     12.04s CPU      1.21s WALL (    9410 calls)
     davcio       :      0.02s CPU      0.00s WALL (      72 calls)


     PWSCF        :     19.73s CPU      1.88s WALL


   This run was terminated on:  12:23: 4   6Mar2023            

=------------------------------------------------------------------------------=
   JOB DONE.
=------------------------------------------------------------------------------=
