
     Program PWSCF v.6.6 starts on 13Mar2023 at 12:34:13 

     This program is part of the open-source Quantum ESPRESSO suite
     for quantum simulation of materials; please cite
         "P. Giannozzi et al., J. Phys.:Condens. Matter 21 395502 (2009);
         "P. Giannozzi et al., J. Phys.:Condens. Matter 29 465901 (2017);
          URL http://www.quantum-espresso.org", 
     in publications or presentations arising from this work. More details at
     http://www.quantum-espresso.org/quote

     Serial version
     Fft bands division:     nmany     =       1
     Waiting for input...
     Reading input from standard input

     Current dimensions of program PWSCF are:
     Max number of different atomic species (ntypx) = 10
     Max number of k-points (npk) =  40000
     Max angular momentum in pseudopotentials (lmaxx) =  3

     G-vector sticks info
     --------------------
     sticks:   dense  smooth     PW     G-vecs:    dense   smooth      PW
     Sum          97      97     43                  645      645     181



     bravais-lattice index     =            2
     lattice parameter (alat)  =       7.8000  a.u.
     unit-cell volume          =     118.6380 (a.u.)^3
     number of atoms/cell      =            1
     number of atomic types    =            1
     number of electrons       =         3.00
     number of Kohn-Sham states=            6
     kinetic-energy cutoff     =      12.0000  Ry
     charge density cutoff     =      48.0000  Ry
     convergence threshold     =      1.0E-06
     mixing beta               =       0.7000
     number of iterations used =            8  plain     mixing
     Exchange-correlation= SLA PZ NOGX NOGC
                           (   1   1   0   0   0   0   0)

     celldm(1)=   7.800000  celldm(2)=   0.000000  celldm(3)=   0.000000
     celldm(4)=   0.000000  celldm(5)=   0.000000  celldm(6)=   0.000000

     crystal axes: (cart. coord. in units of alat)
               a(1) = (  -0.500000   0.000000   0.500000 )  
               a(2) = (   0.000000   0.500000   0.500000 )  
               a(3) = (  -0.500000   0.500000   0.000000 )  

     reciprocal axes: (cart. coord. in units 2 pi/alat)
               b(1) = ( -1.000000 -1.000000  1.000000 )  
               b(2) = (  1.000000  1.000000  1.000000 )  
               b(3) = ( -1.000000  1.000000 -1.000000 )  


     PseudoPot. # 1 for Al read from file:
     ../pseudo/Al.pz-vbc.UPF
     MD5 check sum: f06ceae8da0fe5c02c98e3688433298c
     Pseudo is Norm-conserving, Zval =  3.0
     Generated by new atomic code, or converted to UPF format
     Using radial grid of  171 points,  2 beta functions with: 
                l(1) =   0
                l(2) =   1

     atomic species   valence    mass     pseudopotential
        Al             3.00    26.98000     Al( 1.00)

     48 Sym. Ops., with inversion, found


                                    s                        frac. trans.

      isym =  1     identity                                     

 cryst.   s( 1) = (     1          0          0      )
                  (     0          1          0      )
                  (     0          0          1      )

 cart.    s( 1) = (  1.0000000  0.0000000  0.0000000 )
                  (  0.0000000  1.0000000  0.0000000 )
                  (  0.0000000  0.0000000  1.0000000 )


      isym =  2     180 deg rotation - cart. axis [0,0,1]        

 cryst.   s( 2) = (     0          1         -1      )
                  (     1          0         -1      )
                  (     0          0         -1      )

 cart.    s( 2) = ( -1.0000000  0.0000000  0.0000000 )
                  (  0.0000000 -1.0000000  0.0000000 )
                  (  0.0000000  0.0000000  1.0000000 )


      isym =  3     180 deg rotation - cart. axis [0,1,0]        

 cryst.   s( 3) = (    -1          0          0      )
                  (    -1          0          1      )
                  (    -1          1          0      )

 cart.    s( 3) = ( -1.0000000  0.0000000  0.0000000 )
                  (  0.0000000  1.0000000  0.0000000 )
                  (  0.0000000  0.0000000 -1.0000000 )


      isym =  4     180 deg rotation - cart. axis [1,0,0]        

 cryst.   s( 4) = (     0         -1          1      )
                  (     0         -1          0      )
                  (     1         -1          0      )

 cart.    s( 4) = (  1.0000000  0.0000000  0.0000000 )
                  (  0.0000000 -1.0000000  0.0000000 )
                  (  0.0000000  0.0000000 -1.0000000 )


      isym =  5     180 deg rotation - cart. axis [1,1,0]        

 cryst.   s( 5) = (     0         -1          0      )
                  (    -1          0          0      )
                  (     0          0         -1      )

 cart.    s( 5) = (  0.0000000  1.0000000  0.0000000 )
                  (  1.0000000  0.0000000  0.0000000 )
                  (  0.0000000  0.0000000 -1.0000000 )


      isym =  6     180 deg rotation - cart. axis [1,-1,0]       

 cryst.   s( 6) = (    -1          0          1      )
                  (     0         -1          1      )
                  (     0          0          1      )

 cart.    s( 6) = (  0.0000000 -1.0000000  0.0000000 )
                  ( -1.0000000  0.0000000  0.0000000 )
                  (  0.0000000  0.0000000 -1.0000000 )


      isym =  7      90 deg rotation - cart. axis [0,0,-1]       

 cryst.   s( 7) = (     0          1          0      )
                  (     0          1         -1      )
                  (    -1          1          0      )

 cart.    s( 7) = (  0.0000000  1.0000000  0.0000000 )
                  ( -1.0000000  0.0000000  0.0000000 )
                  (  0.0000000  0.0000000  1.0000000 )


      isym =  8      90 deg rotation - cart. axis [0,0,1]        

 cryst.   s( 8) = (     1          0         -1      )
                  (     1          0          0      )
                  (     1         -1          0      )

 cart.    s( 8) = (  0.0000000 -1.0000000  0.0000000 )
                  (  1.0000000  0.0000000  0.0000000 )
                  (  0.0000000  0.0000000  1.0000000 )


      isym =  9     180 deg rotation - cart. axis [1,0,1]        

 cryst.   s( 9) = (    -1          0          0      )
                  (     0          0         -1      )
                  (     0         -1          0      )

 cart.    s( 9) = (  0.0000000  0.0000000  1.0000000 )
                  (  0.0000000 -1.0000000  0.0000000 )
                  (  1.0000000  0.0000000  0.0000000 )


      isym = 10     180 deg rotation - cart. axis [-1,0,1]       

 cryst.   s(10) = (     1          0          0      )
                  (     1         -1          0      )
                  (     1          0         -1      )

 cart.    s(10) = (  0.0000000  0.0000000 -1.0000000 )
                  (  0.0000000 -1.0000000  0.0000000 )
                  ( -1.0000000  0.0000000  0.0000000 )


      isym = 11      90 deg rotation - cart. axis [0,1,0]        

 cryst.   s(11) = (     0          1         -1      )
                  (    -1          1          0      )
                  (     0          1          0      )

 cart.    s(11) = (  0.0000000  0.0000000  1.0000000 )
                  (  0.0000000  1.0000000  0.0000000 )
                  ( -1.0000000  0.0000000  0.0000000 )


      isym = 12      90 deg rotation - cart. axis [0,-1,0]       

 cryst.   s(12) = (     0         -1          1      )
                  (     0          0          1      )
                  (    -1          0          1      )

 cart.    s(12) = (  0.0000000  0.0000000 -1.0000000 )
                  (  0.0000000  1.0000000  0.0000000 )
                  (  1.0000000  0.0000000  0.0000000 )


      isym = 13     180 deg rotation - cart. axis [0,1,1]        

 cryst.   s(13) = (    -1          1          0      )
                  (     0          1          0      )
                  (     0          1         -1      )

 cart.    s(13) = ( -1.0000000  0.0000000  0.0000000 )
                  (  0.0000000  0.0000000  1.0000000 )
                  (  0.0000000  1.0000000  0.0000000 )


      isym = 14     180 deg rotation - cart. axis [0,1,-1]       

 cryst.   s(14) = (     0          0         -1      )
                  (     0         -1          0      )
                  (    -1          0          0      )

 cart.    s(14) = ( -1.0000000  0.0000000  0.0000000 )
                  (  0.0000000  0.0000000 -1.0000000 )
                  (  0.0000000 -1.0000000  0.0000000 )


      isym = 15      90 deg rotation - cart. axis [-1,0,0]       

 cryst.   s(15) = (     0          0          1      )
                  (    -1          0          1      )
                  (     0         -1          1      )

 cart.    s(15) = (  1.0000000  0.0000000  0.0000000 )
                  (  0.0000000  0.0000000  1.0000000 )
                  (  0.0000000 -1.0000000  0.0000000 )


      isym = 16      90 deg rotation - cart. axis [1,0,0]        

 cryst.   s(16) = (     1         -1          0      )
                  (     1          0         -1      )
                  (     1          0          0      )

 cart.    s(16) = (  1.0000000  0.0000000  0.0000000 )
                  (  0.0000000  0.0000000 -1.0000000 )
                  (  0.0000000  1.0000000  0.0000000 )


      isym = 17     120 deg rotation - cart. axis [-1,-1,-1]     

 cryst.   s(17) = (    -1          0          1      )
                  (    -1          1          0      )
                  (    -1          0          0      )

 cart.    s(17) = (  0.0000000  1.0000000  0.0000000 )
                  (  0.0000000  0.0000000  1.0000000 )
                  (  1.0000000  0.0000000  0.0000000 )


      isym = 18     120 deg rotation - cart. axis [-1,1,1]       

 cryst.   s(18) = (     0          1          0      )
                  (     0          0          1      )
                  (     1          0          0      )

 cart.    s(18) = (  0.0000000 -1.0000000  0.0000000 )
                  (  0.0000000  0.0000000  1.0000000 )
                  ( -1.0000000  0.0000000  0.0000000 )


      isym = 19     120 deg rotation - cart. axis [1,1,-1]       

 cryst.   s(19) = (     1          0         -1      )
                  (     0          0         -1      )
                  (     0          1         -1      )

 cart.    s(19) = (  0.0000000  1.0000000  0.0000000 )
                  (  0.0000000  0.0000000 -1.0000000 )
                  ( -1.0000000  0.0000000  0.0000000 )


      isym = 20     120 deg rotation - cart. axis [1,-1,1]       

 cryst.   s(20) = (     0         -1          0      )
                  (     1         -1          0      )
                  (     0         -1          1      )

 cart.    s(20) = (  0.0000000 -1.0000000  0.0000000 )
                  (  0.0000000  0.0000000 -1.0000000 )
                  (  1.0000000  0.0000000  0.0000000 )


      isym = 21     120 deg rotation - cart. axis [1,1,1]        

 cryst.   s(21) = (     0          0         -1      )
                  (     0          1         -1      )
                  (     1          0         -1      )

 cart.    s(21) = (  0.0000000  0.0000000  1.0000000 )
                  (  1.0000000  0.0000000  0.0000000 )
                  (  0.0000000  1.0000000  0.0000000 )


      isym = 22     120 deg rotation - cart. axis [-1,1,-1]      

 cryst.   s(22) = (    -1          1          0      )
                  (    -1          0          0      )
                  (    -1          0          1      )

 cart.    s(22) = (  0.0000000  0.0000000  1.0000000 )
                  ( -1.0000000  0.0000000  0.0000000 )
                  (  0.0000000 -1.0000000  0.0000000 )


      isym = 23     120 deg rotation - cart. axis [1,-1,-1]      

 cryst.   s(23) = (     0          0          1      )
                  (     1          0          0      )
                  (     0          1          0      )

 cart.    s(23) = (  0.0000000  0.0000000 -1.0000000 )
                  ( -1.0000000  0.0000000  0.0000000 )
                  (  0.0000000  1.0000000  0.0000000 )


      isym = 24     120 deg rotation - cart. axis [-1,-1,1]      

 cryst.   s(24) = (     1         -1          0      )
                  (     0         -1          1      )
                  (     0         -1          0      )

 cart.    s(24) = (  0.0000000  0.0000000 -1.0000000 )
                  (  1.0000000  0.0000000  0.0000000 )
                  (  0.0000000 -1.0000000  0.0000000 )


      isym = 25     inversion                                    

 cryst.   s(25) = (    -1          0          0      )
                  (     0         -1          0      )
                  (     0          0         -1      )

 cart.    s(25) = ( -1.0000000  0.0000000  0.0000000 )
                  (  0.0000000 -1.0000000  0.0000000 )
                  (  0.0000000  0.0000000 -1.0000000 )


      isym = 26     inv. 180 deg rotation - cart. axis [0,0,1]   

 cryst.   s(26) = (     0         -1          1      )
                  (    -1          0          1      )
                  (     0          0          1      )

 cart.    s(26) = (  1.0000000  0.0000000  0.0000000 )
                  (  0.0000000  1.0000000  0.0000000 )
                  (  0.0000000  0.0000000 -1.0000000 )


      isym = 27     inv. 180 deg rotation - cart. axis [0,1,0]   

 cryst.   s(27) = (     1          0          0      )
                  (     1          0         -1      )
                  (     1         -1          0      )

 cart.    s(27) = (  1.0000000  0.0000000  0.0000000 )
                  (  0.0000000 -1.0000000  0.0000000 )
                  (  0.0000000  0.0000000  1.0000000 )


      isym = 28     inv. 180 deg rotation - cart. axis [1,0,0]   

 cryst.   s(28) = (     0          1         -1      )
                  (     0          1          0      )
                  (    -1          1          0      )

 cart.    s(28) = ( -1.0000000  0.0000000  0.0000000 )
                  (  0.0000000  1.0000000  0.0000000 )
                  (  0.0000000  0.0000000  1.0000000 )


      isym = 29     inv. 180 deg rotation - cart. axis [1,1,0]   

 cryst.   s(29) = (     0          1          0      )
                  (     1          0          0      )
                  (     0          0          1      )

 cart.    s(29) = (  0.0000000 -1.0000000  0.0000000 )
                  ( -1.0000000  0.0000000  0.0000000 )
                  (  0.0000000  0.0000000  1.0000000 )


      isym = 30     inv. 180 deg rotation - cart. axis [1,-1,0]  

 cryst.   s(30) = (     1          0         -1      )
                  (     0          1         -1      )
                  (     0          0         -1      )

 cart.    s(30) = (  0.0000000  1.0000000  0.0000000 )
                  (  1.0000000  0.0000000  0.0000000 )
                  (  0.0000000  0.0000000  1.0000000 )


      isym = 31     inv.  90 deg rotation - cart. axis [0,0,-1]  

 cryst.   s(31) = (     0         -1          0      )
                  (     0         -1          1      )
                  (     1         -1          0      )

 cart.    s(31) = (  0.0000000 -1.0000000  0.0000000 )
                  (  1.0000000  0.0000000  0.0000000 )
                  (  0.0000000  0.0000000 -1.0000000 )


      isym = 32     inv.  90 deg rotation - cart. axis [0,0,1]   

 cryst.   s(32) = (    -1          0          1      )
                  (    -1          0          0      )
                  (    -1          1          0      )

 cart.    s(32) = (  0.0000000  1.0000000  0.0000000 )
                  ( -1.0000000  0.0000000  0.0000000 )
                  (  0.0000000  0.0000000 -1.0000000 )


      isym = 33     inv. 180 deg rotation - cart. axis [1,0,1]   

 cryst.   s(33) = (     1          0          0      )
                  (     0          0          1      )
                  (     0          1          0      )

 cart.    s(33) = (  0.0000000  0.0000000 -1.0000000 )
                  (  0.0000000  1.0000000  0.0000000 )
                  ( -1.0000000  0.0000000  0.0000000 )


      isym = 34     inv. 180 deg rotation - cart. axis [-1,0,1]  

 cryst.   s(34) = (    -1          0          0      )
                  (    -1          1          0      )
                  (    -1          0          1      )

 cart.    s(34) = (  0.0000000  0.0000000  1.0000000 )
                  (  0.0000000  1.0000000  0.0000000 )
                  (  1.0000000  0.0000000  0.0000000 )


      isym = 35     inv.  90 deg rotation - cart. axis [0,1,0]   

 cryst.   s(35) = (     0         -1          1      )
                  (     1         -1          0      )
                  (     0         -1          0      )

 cart.    s(35) = (  0.0000000  0.0000000 -1.0000000 )
                  (  0.0000000 -1.0000000  0.0000000 )
                  (  1.0000000  0.0000000  0.0000000 )


      isym = 36     inv.  90 deg rotation - cart. axis [0,-1,0]  

 cryst.   s(36) = (     0          1         -1      )
                  (     0          0         -1      )
                  (     1          0         -1      )

 cart.    s(36) = (  0.0000000  0.0000000  1.0000000 )
                  (  0.0000000 -1.0000000  0.0000000 )
                  ( -1.0000000  0.0000000  0.0000000 )


      isym = 37     inv. 180 deg rotation - cart. axis [0,1,1]   

 cryst.   s(37) = (     1         -1          0      )
                  (     0         -1          0      )
                  (     0         -1          1      )

 cart.    s(37) = (  1.0000000  0.0000000  0.0000000 )
                  (  0.0000000  0.0000000 -1.0000000 )
                  (  0.0000000 -1.0000000  0.0000000 )


      isym = 38     inv. 180 deg rotation - cart. axis [0,1,-1]  

 cryst.   s(38) = (     0          0          1      )
                  (     0          1          0      )
                  (     1          0          0      )

 cart.    s(38) = (  1.0000000  0.0000000  0.0000000 )
                  (  0.0000000  0.0000000  1.0000000 )
                  (  0.0000000  1.0000000  0.0000000 )


      isym = 39     inv.  90 deg rotation - cart. axis [-1,0,0]  

 cryst.   s(39) = (     0          0         -1      )
                  (     1          0         -1      )
                  (     0          1         -1      )

 cart.    s(39) = ( -1.0000000  0.0000000  0.0000000 )
                  (  0.0000000  0.0000000 -1.0000000 )
                  (  0.0000000  1.0000000  0.0000000 )


      isym = 40     inv.  90 deg rotation - cart. axis [1,0,0]   

 cryst.   s(40) = (    -1          1          0      )
                  (    -1          0          1      )
                  (    -1          0          0      )

 cart.    s(40) = ( -1.0000000  0.0000000  0.0000000 )
                  (  0.0000000  0.0000000  1.0000000 )
                  (  0.0000000 -1.0000000  0.0000000 )


      isym = 41     inv. 120 deg rotation - cart. axis [-1,-1,-1]

 cryst.   s(41) = (     1          0         -1      )
                  (     1         -1          0      )
                  (     1          0          0      )

 cart.    s(41) = (  0.0000000 -1.0000000  0.0000000 )
                  (  0.0000000  0.0000000 -1.0000000 )
                  ( -1.0000000  0.0000000  0.0000000 )


      isym = 42     inv. 120 deg rotation - cart. axis [-1,1,1]  

 cryst.   s(42) = (     0         -1          0      )
                  (     0          0         -1      )
                  (    -1          0          0      )

 cart.    s(42) = (  0.0000000  1.0000000  0.0000000 )
                  (  0.0000000  0.0000000 -1.0000000 )
                  (  1.0000000  0.0000000  0.0000000 )


      isym = 43     inv. 120 deg rotation - cart. axis [1,1,-1]  

 cryst.   s(43) = (    -1          0          1      )
                  (     0          0          1      )
                  (     0         -1          1      )

 cart.    s(43) = (  0.0000000 -1.0000000  0.0000000 )
                  (  0.0000000  0.0000000  1.0000000 )
                  (  1.0000000  0.0000000  0.0000000 )


      isym = 44     inv. 120 deg rotation - cart. axis [1,-1,1]  

 cryst.   s(44) = (     0          1          0      )
                  (    -1          1          0      )
                  (     0          1         -1      )

 cart.    s(44) = (  0.0000000  1.0000000  0.0000000 )
                  (  0.0000000  0.0000000  1.0000000 )
                  ( -1.0000000  0.0000000  0.0000000 )


      isym = 45     inv. 120 deg rotation - cart. axis [1,1,1]   

 cryst.   s(45) = (     0          0          1      )
                  (     0         -1          1      )
                  (    -1          0          1      )

 cart.    s(45) = (  0.0000000  0.0000000 -1.0000000 )
                  ( -1.0000000  0.0000000  0.0000000 )
                  (  0.0000000 -1.0000000  0.0000000 )


      isym = 46     inv. 120 deg rotation - cart. axis [-1,1,-1] 

 cryst.   s(46) = (     1         -1          0      )
                  (     1          0          0      )
                  (     1          0         -1      )

 cart.    s(46) = (  0.0000000  0.0000000 -1.0000000 )
                  (  1.0000000  0.0000000  0.0000000 )
                  (  0.0000000  1.0000000  0.0000000 )


      isym = 47     inv. 120 deg rotation - cart. axis [1,-1,-1] 

 cryst.   s(47) = (     0          0         -1      )
                  (    -1          0          0      )
                  (     0         -1          0      )

 cart.    s(47) = (  0.0000000  0.0000000  1.0000000 )
                  (  1.0000000  0.0000000  0.0000000 )
                  (  0.0000000 -1.0000000  0.0000000 )


      isym = 48     inv. 120 deg rotation - cart. axis [-1,-1,1] 

 cryst.   s(48) = (    -1          1          0      )
                  (     0          1         -1      )
                  (     0          1          0      )

 cart.    s(48) = (  0.0000000  0.0000000  1.0000000 )
                  ( -1.0000000  0.0000000  0.0000000 )
                  (  0.0000000  1.0000000  0.0000000 )


     point group O_h (m-3m) 
     there are 10 classes
     the character table:

       E     8C3   3C2   6C4   6C2'  i     8S6   3s_h  6S4   6s_d 
A_1g   1.00  1.00  1.00  1.00  1.00  1.00  1.00  1.00  1.00  1.00
A_2g   1.00  1.00  1.00 -1.00 -1.00  1.00  1.00  1.00 -1.00 -1.00
E_g    2.00 -1.00  2.00  0.00  0.00  2.00 -1.00  2.00  0.00  0.00
T_1g   3.00  0.00 -1.00  1.00 -1.00  3.00  0.00 -1.00  1.00 -1.00
T_2g   3.00  0.00 -1.00 -1.00  1.00  3.00  0.00 -1.00 -1.00  1.00
A_1u   1.00  1.00  1.00  1.00  1.00 -1.00 -1.00 -1.00 -1.00 -1.00
A_2u   1.00  1.00  1.00 -1.00 -1.00 -1.00 -1.00 -1.00  1.00  1.00
E_u    2.00 -1.00  2.00  0.00  0.00 -2.00  1.00 -2.00  0.00  0.00
T_1u   3.00  0.00 -1.00  1.00 -1.00 -3.00  0.00  1.00 -1.00  1.00
T_2u   3.00  0.00 -1.00 -1.00  1.00 -3.00  0.00  1.00  1.00 -1.00

     the symmetry operations in each class and the name of the first element:

     E        1
          identity                                               
     8C3     17   19   20   18   24   21   22   23
          120 deg rotation - cart. axis [-1,-1,-1]               
     3C2      2    4    3
          180 deg rotation - cart. axis [0,0,1]                  
     6C4      7    8   15   16   12   11
           90 deg rotation - cart. axis [0,0,-1]                 
     6C2'     5    6   14   13   10    9
          180 deg rotation - cart. axis [1,1,0]                  
     i       25
          inversion                                              
     8S6     41   43   44   42   48   45   46   47
          inv. 120 deg rotation - cart. axis [-1,-1,-1]          
     3s_h    26   28   27
          inv. 180 deg rotation - cart. axis [0,0,1]             
     6S4     31   32   39   40   36   35
          inv.  90 deg rotation - cart. axis [0,0,-1]            
     6s_d    29   30   38   37   34   33
          inv. 180 deg rotation - cart. axis [1,1,0]             

   Cartesian axes

     site n.     atom                  positions (alat units)
         1           Al  tau(   1) = (   0.0000000   0.0000000   0.0000000  )

   Crystallographic axes

     site n.     atom                  positions (cryst. coord.)
         1           Al  tau(   1) = (  0.0000000  0.0000000  0.0000000  )

     number of k points=   770  Marzari-Vanderbilt smearing, width (Ry)=  0.0200
                       cart. coord. in units 2pi/alat
        k(    1) = (  -0.0250000   0.0250000   0.0250000), wk =   0.0005000
        k(    2) = (  -0.0750000   0.0750000  -0.0250000), wk =   0.0015000
        k(    3) = (  -0.1250000   0.1250000  -0.0750000), wk =   0.0015000
        k(    4) = (  -0.1750000   0.1750000  -0.1250000), wk =   0.0015000
        k(    5) = (  -0.2250000   0.2250000  -0.1750000), wk =   0.0015000
        k(    6) = (  -0.2750000   0.2750000  -0.2250000), wk =   0.0015000
        k(    7) = (  -0.3250000   0.3250000  -0.2750000), wk =   0.0015000
        k(    8) = (  -0.3750000   0.3750000  -0.3250000), wk =   0.0015000
        k(    9) = (  -0.4250000   0.4250000  -0.3750000), wk =   0.0015000
        k(   10) = (  -0.4750000   0.4750000  -0.4250000), wk =   0.0015000
        k(   11) = (   0.4750000  -0.4750000   0.5250000), wk =   0.0015000
        k(   12) = (   0.4250000  -0.4250000   0.4750000), wk =   0.0015000
        k(   13) = (   0.3750000  -0.3750000   0.4250000), wk =   0.0015000
        k(   14) = (   0.3250000  -0.3250000   0.3750000), wk =   0.0015000
        k(   15) = (   0.2750000  -0.2750000   0.3250000), wk =   0.0015000
        k(   16) = (   0.2250000  -0.2250000   0.2750000), wk =   0.0015000
        k(   17) = (   0.1750000  -0.1750000   0.2250000), wk =   0.0015000
        k(   18) = (   0.1250000  -0.1250000   0.1750000), wk =   0.0015000
        k(   19) = (   0.0750000  -0.0750000   0.1250000), wk =   0.0015000
        k(   20) = (   0.0250000  -0.0250000   0.0750000), wk =   0.0015000
        k(   21) = (  -0.0250000   0.1250000   0.0250000), wk =   0.0015000
        k(   22) = (  -0.0750000   0.1750000  -0.0250000), wk =   0.0030000
        k(   23) = (  -0.1250000   0.2250000  -0.0750000), wk =   0.0030000
        k(   24) = (  -0.1750000   0.2750000  -0.1250000), wk =   0.0030000
        k(   25) = (  -0.2250000   0.3250000  -0.1750000), wk =   0.0030000
        k(   26) = (  -0.2750000   0.3750000  -0.2250000), wk =   0.0030000
        k(   27) = (  -0.3250000   0.4250000  -0.2750000), wk =   0.0030000
        k(   28) = (  -0.3750000   0.4750000  -0.3250000), wk =   0.0030000
        k(   29) = (  -0.4250000   0.5250000  -0.3750000), wk =   0.0030000
        k(   30) = (   0.5250000  -0.4250000   0.5750000), wk =   0.0030000
        k(   31) = (   0.4750000  -0.3750000   0.5250000), wk =   0.0030000
        k(   32) = (   0.4250000  -0.3250000   0.4750000), wk =   0.0030000
        k(   33) = (   0.3750000  -0.2750000   0.4250000), wk =   0.0030000
        k(   34) = (   0.3250000  -0.2250000   0.3750000), wk =   0.0030000
        k(   35) = (   0.2750000  -0.1750000   0.3250000), wk =   0.0030000
        k(   36) = (   0.2250000  -0.1250000   0.2750000), wk =   0.0030000
        k(   37) = (   0.1750000  -0.0750000   0.2250000), wk =   0.0030000
        k(   38) = (   0.1250000  -0.0250000   0.1750000), wk =   0.0030000
        k(   39) = (   0.0750000   0.0250000   0.1250000), wk =   0.0030000
        k(   40) = (  -0.0250000   0.2250000   0.0250000), wk =   0.0015000
        k(   41) = (  -0.0750000   0.2750000  -0.0250000), wk =   0.0030000
        k(   42) = (  -0.1250000   0.3250000  -0.0750000), wk =   0.0030000
        k(   43) = (  -0.1750000   0.3750000  -0.1250000), wk =   0.0030000
        k(   44) = (  -0.2250000   0.4250000  -0.1750000), wk =   0.0030000
        k(   45) = (  -0.2750000   0.4750000  -0.2250000), wk =   0.0030000
        k(   46) = (  -0.3250000   0.5250000  -0.2750000), wk =   0.0030000
        k(   47) = (  -0.3750000   0.5750000  -0.3250000), wk =   0.0030000
        k(   48) = (   0.5750000  -0.3750000   0.6250000), wk =   0.0030000
        k(   49) = (   0.5250000  -0.3250000   0.5750000), wk =   0.0030000
        k(   50) = (   0.4750000  -0.2750000   0.5250000), wk =   0.0030000
        k(   51) = (   0.4250000  -0.2250000   0.4750000), wk =   0.0030000
        k(   52) = (   0.3750000  -0.1750000   0.4250000), wk =   0.0030000
        k(   53) = (   0.3250000  -0.1250000   0.3750000), wk =   0.0030000
        k(   54) = (   0.2750000  -0.0750000   0.3250000), wk =   0.0030000
        k(   55) = (   0.2250000  -0.0250000   0.2750000), wk =   0.0030000
        k(   56) = (   0.1750000   0.0250000   0.2250000), wk =   0.0030000
        k(   57) = (   0.1250000   0.0750000   0.1750000), wk =   0.0030000
        k(   58) = (  -0.0250000   0.3250000   0.0250000), wk =   0.0015000
        k(   59) = (  -0.0750000   0.3750000  -0.0250000), wk =   0.0030000
        k(   60) = (  -0.1250000   0.4250000  -0.0750000), wk =   0.0030000
        k(   61) = (  -0.1750000   0.4750000  -0.1250000), wk =   0.0030000
        k(   62) = (  -0.2250000   0.5250000  -0.1750000), wk =   0.0030000
        k(   63) = (  -0.2750000   0.5750000  -0.2250000), wk =   0.0030000
        k(   64) = (  -0.3250000   0.6250000  -0.2750000), wk =   0.0030000
        k(   65) = (   0.6250000  -0.3250000   0.6750000), wk =   0.0030000
        k(   66) = (   0.5750000  -0.2750000   0.6250000), wk =   0.0030000
        k(   67) = (   0.5250000  -0.2250000   0.5750000), wk =   0.0030000
        k(   68) = (   0.4750000  -0.1750000   0.5250000), wk =   0.0030000
        k(   69) = (   0.4250000  -0.1250000   0.4750000), wk =   0.0030000
        k(   70) = (   0.3750000  -0.0750000   0.4250000), wk =   0.0030000
        k(   71) = (   0.3250000  -0.0250000   0.3750000), wk =   0.0030000
        k(   72) = (   0.2750000   0.0250000   0.3250000), wk =   0.0030000
        k(   73) = (   0.2250000   0.0750000   0.2750000), wk =   0.0030000
        k(   74) = (   0.1750000   0.1250000   0.2250000), wk =   0.0030000
        k(   75) = (  -0.0250000   0.4250000   0.0250000), wk =   0.0015000
        k(   76) = (  -0.0750000   0.4750000  -0.0250000), wk =   0.0030000
        k(   77) = (  -0.1250000   0.5250000  -0.0750000), wk =   0.0030000
        k(   78) = (  -0.1750000   0.5750000  -0.1250000), wk =   0.0030000
        k(   79) = (  -0.2250000   0.6250000  -0.1750000), wk =   0.0030000
        k(   80) = (  -0.2750000   0.6750000  -0.2250000), wk =   0.0030000
        k(   81) = (   0.6750000  -0.2750000   0.7250000), wk =   0.0030000
        k(   82) = (   0.6250000  -0.2250000   0.6750000), wk =   0.0030000
        k(   83) = (   0.5750000  -0.1750000   0.6250000), wk =   0.0030000
        k(   84) = (   0.5250000  -0.1250000   0.5750000), wk =   0.0030000
        k(   85) = (   0.4750000  -0.0750000   0.5250000), wk =   0.0030000
        k(   86) = (   0.4250000  -0.0250000   0.4750000), wk =   0.0030000
        k(   87) = (   0.3750000   0.0250000   0.4250000), wk =   0.0030000
        k(   88) = (   0.3250000   0.0750000   0.3750000), wk =   0.0030000
        k(   89) = (   0.2750000   0.1250000   0.3250000), wk =   0.0030000
        k(   90) = (   0.2250000   0.1750000   0.2750000), wk =   0.0030000
        k(   91) = (  -0.0250000   0.5250000   0.0250000), wk =   0.0015000
        k(   92) = (  -0.0750000   0.5750000  -0.0250000), wk =   0.0030000
        k(   93) = (  -0.1250000   0.6250000  -0.0750000), wk =   0.0030000
        k(   94) = (  -0.1750000   0.6750000  -0.1250000), wk =   0.0030000
        k(   95) = (  -0.2250000   0.7250000  -0.1750000), wk =   0.0030000
        k(   96) = (   0.7250000  -0.2250000   0.7750000), wk =   0.0030000
        k(   97) = (   0.6750000  -0.1750000   0.7250000), wk =   0.0030000
        k(   98) = (   0.6250000  -0.1250000   0.6750000), wk =   0.0030000
        k(   99) = (   0.5750000  -0.0750000   0.6250000), wk =   0.0030000
        k(  100) = (   0.5250000  -0.0250000   0.5750000), wk =   0.0030000
        k(  101) = (   0.4750000   0.0250000   0.5250000), wk =   0.0030000
        k(  102) = (   0.4250000   0.0750000   0.4750000), wk =   0.0030000
        k(  103) = (   0.3750000   0.1250000   0.4250000), wk =   0.0030000
        k(  104) = (   0.3250000   0.1750000   0.3750000), wk =   0.0030000
        k(  105) = (   0.2750000   0.2250000   0.3250000), wk =   0.0030000
        k(  106) = (  -0.0250000   0.6250000   0.0250000), wk =   0.0015000
        k(  107) = (  -0.0750000   0.6750000  -0.0250000), wk =   0.0030000
        k(  108) = (  -0.1250000   0.7250000  -0.0750000), wk =   0.0030000
        k(  109) = (  -0.1750000   0.7750000  -0.1250000), wk =   0.0030000
        k(  110) = (   0.7750000  -0.1750000   0.8250000), wk =   0.0030000
        k(  111) = (   0.7250000  -0.1250000   0.7750000), wk =   0.0030000
        k(  112) = (   0.6750000  -0.0750000   0.7250000), wk =   0.0030000
        k(  113) = (   0.6250000  -0.0250000   0.6750000), wk =   0.0030000
        k(  114) = (   0.5750000   0.0250000   0.6250000), wk =   0.0030000
        k(  115) = (   0.5250000   0.0750000   0.5750000), wk =   0.0030000
        k(  116) = (   0.4750000   0.1250000   0.5250000), wk =   0.0030000
        k(  117) = (   0.4250000   0.1750000   0.4750000), wk =   0.0030000
        k(  118) = (   0.3750000   0.2250000   0.4250000), wk =   0.0030000
        k(  119) = (   0.3250000   0.2750000   0.3750000), wk =   0.0030000
        k(  120) = (  -0.0250000   0.7250000   0.0250000), wk =   0.0015000
        k(  121) = (  -0.0750000   0.7750000  -0.0250000), wk =   0.0030000
        k(  122) = (  -0.1250000   0.8250000  -0.0750000), wk =   0.0030000
        k(  123) = (   0.8250000  -0.1250000   0.8750000), wk =   0.0030000
        k(  124) = (   0.7750000  -0.0750000   0.8250000), wk =   0.0030000
        k(  125) = (   0.7250000  -0.0250000   0.7750000), wk =   0.0030000
        k(  126) = (   0.6750000   0.0250000   0.7250000), wk =   0.0030000
        k(  127) = (   0.6250000   0.0750000   0.6750000), wk =   0.0030000
        k(  128) = (   0.5750000   0.1250000   0.6250000), wk =   0.0030000
        k(  129) = (   0.5250000   0.1750000   0.5750000), wk =   0.0030000
        k(  130) = (   0.4750000   0.2250000   0.5250000), wk =   0.0030000
        k(  131) = (   0.4250000   0.2750000   0.4750000), wk =   0.0030000
        k(  132) = (   0.3750000   0.3250000   0.4250000), wk =   0.0030000
        k(  133) = (  -0.0250000   0.8250000   0.0250000), wk =   0.0015000
        k(  134) = (  -0.0750000   0.8750000  -0.0250000), wk =   0.0030000
        k(  135) = (   0.8750000  -0.0750000   0.9250000), wk =   0.0030000
        k(  136) = (   0.8250000  -0.0250000   0.8750000), wk =   0.0030000
        k(  137) = (   0.7750000   0.0250000   0.8250000), wk =   0.0030000
        k(  138) = (   0.7250000   0.0750000   0.7750000), wk =   0.0030000
        k(  139) = (   0.6750000   0.1250000   0.7250000), wk =   0.0030000
        k(  140) = (   0.6250000   0.1750000   0.6750000), wk =   0.0030000
        k(  141) = (   0.5750000   0.2250000   0.6250000), wk =   0.0030000
        k(  142) = (   0.5250000   0.2750000   0.5750000), wk =   0.0030000
        k(  143) = (   0.4750000   0.3250000   0.5250000), wk =   0.0030000
        k(  144) = (   0.4250000   0.3750000   0.4750000), wk =   0.0030000
        k(  145) = (  -0.0250000   0.9250000   0.0250000), wk =   0.0015000
        k(  146) = (   0.9250000  -0.0250000   0.9750000), wk =   0.0030000
        k(  147) = (   0.8750000   0.0250000   0.9250000), wk =   0.0030000
        k(  148) = (   0.8250000   0.0750000   0.8750000), wk =   0.0030000
        k(  149) = (   0.7750000   0.1250000   0.8250000), wk =   0.0030000
        k(  150) = (   0.7250000   0.1750000   0.7750000), wk =   0.0030000
        k(  151) = (   0.6750000   0.2250000   0.7250000), wk =   0.0030000
        k(  152) = (   0.6250000   0.2750000   0.6750000), wk =   0.0030000
        k(  153) = (   0.5750000   0.3250000   0.6250000), wk =   0.0030000
        k(  154) = (   0.5250000   0.3750000   0.5750000), wk =   0.0030000
        k(  155) = (   0.4750000   0.4250000   0.5250000), wk =   0.0030000
        k(  156) = (  -0.0250000  -0.9750000   0.0250000), wk =   0.0015000
        k(  157) = (  -0.0750000  -0.9250000  -0.0250000), wk =   0.0030000
        k(  158) = (  -0.1250000  -0.8750000  -0.0750000), wk =   0.0030000
        k(  159) = (  -0.1750000  -0.8250000  -0.1250000), wk =   0.0030000
        k(  160) = (  -0.2250000  -0.7750000  -0.1750000), wk =   0.0030000
        k(  161) = (  -0.2750000  -0.7250000  -0.2250000), wk =   0.0030000
        k(  162) = (  -0.3250000  -0.6750000  -0.2750000), wk =   0.0030000
        k(  163) = (  -0.3750000  -0.6250000  -0.3250000), wk =   0.0030000
        k(  164) = (  -0.4250000  -0.5750000  -0.3750000), wk =   0.0030000
        k(  165) = (  -0.0250000  -0.8750000   0.0250000), wk =   0.0015000
        k(  166) = (  -0.0750000  -0.8250000  -0.0250000), wk =   0.0030000
        k(  167) = (  -0.1250000  -0.7750000  -0.0750000), wk =   0.0030000
        k(  168) = (  -0.1750000  -0.7250000  -0.1250000), wk =   0.0030000
        k(  169) = (  -0.2250000  -0.6750000  -0.1750000), wk =   0.0030000
        k(  170) = (  -0.2750000  -0.6250000  -0.2250000), wk =   0.0030000
        k(  171) = (  -0.3250000  -0.5750000  -0.2750000), wk =   0.0030000
        k(  172) = (  -0.3750000  -0.5250000  -0.3250000), wk =   0.0030000
        k(  173) = (  -0.0250000  -0.7750000   0.0250000), wk =   0.0015000
        k(  174) = (  -0.0750000  -0.7250000  -0.0250000), wk =   0.0030000
        k(  175) = (  -0.1250000  -0.6750000  -0.0750000), wk =   0.0030000
        k(  176) = (  -0.1750000  -0.6250000  -0.1250000), wk =   0.0030000
        k(  177) = (  -0.2250000  -0.5750000  -0.1750000), wk =   0.0030000
        k(  178) = (  -0.2750000  -0.5250000  -0.2250000), wk =   0.0030000
        k(  179) = (  -0.3250000  -0.4750000  -0.2750000), wk =   0.0030000
        k(  180) = (  -0.0250000  -0.6750000   0.0250000), wk =   0.0015000
        k(  181) = (  -0.0750000  -0.6250000  -0.0250000), wk =   0.0030000
        k(  182) = (  -0.1250000  -0.5750000  -0.0750000), wk =   0.0030000
        k(  183) = (  -0.1750000  -0.5250000  -0.1250000), wk =   0.0030000
        k(  184) = (  -0.2250000  -0.4750000  -0.1750000), wk =   0.0030000
        k(  185) = (  -0.2750000  -0.4250000  -0.2250000), wk =   0.0030000
        k(  186) = (  -0.0250000  -0.5750000   0.0250000), wk =   0.0015000
        k(  187) = (  -0.0750000  -0.5250000  -0.0250000), wk =   0.0030000
        k(  188) = (  -0.1250000  -0.4750000  -0.0750000), wk =   0.0030000
        k(  189) = (  -0.1750000  -0.4250000  -0.1250000), wk =   0.0030000
        k(  190) = (  -0.2250000  -0.3750000  -0.1750000), wk =   0.0030000
        k(  191) = (  -0.0250000  -0.4750000   0.0250000), wk =   0.0015000
        k(  192) = (  -0.0750000  -0.4250000  -0.0250000), wk =   0.0030000
        k(  193) = (  -0.1250000  -0.3750000  -0.0750000), wk =   0.0030000
        k(  194) = (  -0.1750000  -0.3250000  -0.1250000), wk =   0.0030000
        k(  195) = (  -0.0250000  -0.3750000   0.0250000), wk =   0.0015000
        k(  196) = (  -0.0750000  -0.3250000  -0.0250000), wk =   0.0030000
        k(  197) = (  -0.1250000  -0.2750000  -0.0750000), wk =   0.0030000
        k(  198) = (  -0.0250000  -0.2750000   0.0250000), wk =   0.0015000
        k(  199) = (  -0.0750000  -0.2250000  -0.0250000), wk =   0.0030000
        k(  200) = (  -0.0250000  -0.1750000   0.0250000), wk =   0.0015000
        k(  201) = (  -0.0750000   0.0750000   0.0750000), wk =   0.0005000
        k(  202) = (  -0.1250000   0.1250000   0.0250000), wk =   0.0015000
        k(  203) = (  -0.1750000   0.1750000  -0.0250000), wk =   0.0015000
        k(  204) = (  -0.2250000   0.2250000  -0.0750000), wk =   0.0015000
        k(  205) = (  -0.2750000   0.2750000  -0.1250000), wk =   0.0015000
        k(  206) = (  -0.3250000   0.3250000  -0.1750000), wk =   0.0015000
        k(  207) = (  -0.3750000   0.3750000  -0.2250000), wk =   0.0015000
        k(  208) = (  -0.4250000   0.4250000  -0.2750000), wk =   0.0015000
        k(  209) = (  -0.4750000   0.4750000  -0.3250000), wk =   0.0015000
        k(  210) = (   0.4750000  -0.4750000   0.6250000), wk =   0.0015000
        k(  211) = (   0.4250000  -0.4250000   0.5750000), wk =   0.0015000
        k(  212) = (   0.3750000  -0.3750000   0.5250000), wk =   0.0015000
        k(  213) = (   0.3250000  -0.3250000   0.4750000), wk =   0.0015000
        k(  214) = (   0.2750000  -0.2750000   0.4250000), wk =   0.0015000
        k(  215) = (   0.2250000  -0.2250000   0.3750000), wk =   0.0015000
        k(  216) = (   0.1750000  -0.1750000   0.3250000), wk =   0.0015000
        k(  217) = (   0.1250000  -0.1250000   0.2750000), wk =   0.0015000
        k(  218) = (   0.0750000  -0.0750000   0.2250000), wk =   0.0015000
        k(  219) = (  -0.0750000   0.1750000   0.0750000), wk =   0.0015000
        k(  220) = (  -0.1250000   0.2250000   0.0250000), wk =   0.0030000
        k(  221) = (  -0.1750000   0.2750000  -0.0250000), wk =   0.0030000
        k(  222) = (  -0.2250000   0.3250000  -0.0750000), wk =   0.0030000
        k(  223) = (  -0.2750000   0.3750000  -0.1250000), wk =   0.0030000
        k(  224) = (  -0.3250000   0.4250000  -0.1750000), wk =   0.0030000
        k(  225) = (  -0.3750000   0.4750000  -0.2250000), wk =   0.0030000
        k(  226) = (  -0.4250000   0.5250000  -0.2750000), wk =   0.0030000
        k(  227) = (   0.5250000  -0.4250000   0.6750000), wk =   0.0030000
        k(  228) = (   0.4750000  -0.3750000   0.6250000), wk =   0.0030000
        k(  229) = (   0.4250000  -0.3250000   0.5750000), wk =   0.0030000
        k(  230) = (   0.3750000  -0.2750000   0.5250000), wk =   0.0030000
        k(  231) = (   0.3250000  -0.2250000   0.4750000), wk =   0.0030000
        k(  232) = (   0.2750000  -0.1750000   0.4250000), wk =   0.0030000
        k(  233) = (   0.2250000  -0.1250000   0.3750000), wk =   0.0030000
        k(  234) = (   0.1750000  -0.0750000   0.3250000), wk =   0.0030000
        k(  235) = (   0.1250000  -0.0250000   0.2750000), wk =   0.0030000
        k(  236) = (  -0.0750000   0.2750000   0.0750000), wk =   0.0015000
        k(  237) = (  -0.1250000   0.3250000   0.0250000), wk =   0.0030000
        k(  238) = (  -0.1750000   0.3750000  -0.0250000), wk =   0.0030000
        k(  239) = (  -0.2250000   0.4250000  -0.0750000), wk =   0.0030000
        k(  240) = (  -0.2750000   0.4750000  -0.1250000), wk =   0.0030000
        k(  241) = (  -0.3250000   0.5250000  -0.1750000), wk =   0.0030000
        k(  242) = (  -0.3750000   0.5750000  -0.2250000), wk =   0.0030000
        k(  243) = (   0.5750000  -0.3750000   0.7250000), wk =   0.0030000
        k(  244) = (   0.5250000  -0.3250000   0.6750000), wk =   0.0030000
        k(  245) = (   0.4750000  -0.2750000   0.6250000), wk =   0.0030000
        k(  246) = (   0.4250000  -0.2250000   0.5750000), wk =   0.0030000
        k(  247) = (   0.3750000  -0.1750000   0.5250000), wk =   0.0030000
        k(  248) = (   0.3250000  -0.1250000   0.4750000), wk =   0.0030000
        k(  249) = (   0.2750000  -0.0750000   0.4250000), wk =   0.0030000
        k(  250) = (   0.2250000  -0.0250000   0.3750000), wk =   0.0030000
        k(  251) = (   0.1750000   0.0250000   0.3250000), wk =   0.0030000
        k(  252) = (  -0.0750000   0.3750000   0.0750000), wk =   0.0015000
        k(  253) = (  -0.1250000   0.4250000   0.0250000), wk =   0.0030000
        k(  254) = (  -0.1750000   0.4750000  -0.0250000), wk =   0.0030000
        k(  255) = (  -0.2250000   0.5250000  -0.0750000), wk =   0.0030000
        k(  256) = (  -0.2750000   0.5750000  -0.1250000), wk =   0.0030000
        k(  257) = (  -0.3250000   0.6250000  -0.1750000), wk =   0.0030000
        k(  258) = (   0.6250000  -0.3250000   0.7750000), wk =   0.0030000
        k(  259) = (   0.5750000  -0.2750000   0.7250000), wk =   0.0030000
        k(  260) = (   0.5250000  -0.2250000   0.6750000), wk =   0.0030000
        k(  261) = (   0.4750000  -0.1750000   0.6250000), wk =   0.0030000
        k(  262) = (   0.4250000  -0.1250000   0.5750000), wk =   0.0030000
        k(  263) = (   0.3750000  -0.0750000   0.5250000), wk =   0.0030000
        k(  264) = (   0.3250000  -0.0250000   0.4750000), wk =   0.0030000
        k(  265) = (   0.2750000   0.0250000   0.4250000), wk =   0.0030000
        k(  266) = (   0.2250000   0.0750000   0.3750000), wk =   0.0030000
        k(  267) = (  -0.0750000   0.4750000   0.0750000), wk =   0.0015000
        k(  268) = (  -0.1250000   0.5250000   0.0250000), wk =   0.0030000
        k(  269) = (  -0.1750000   0.5750000  -0.0250000), wk =   0.0030000
        k(  270) = (  -0.2250000   0.6250000  -0.0750000), wk =   0.0030000
        k(  271) = (  -0.2750000   0.6750000  -0.1250000), wk =   0.0030000
        k(  272) = (   0.6750000  -0.2750000   0.8250000), wk =   0.0030000
        k(  273) = (   0.6250000  -0.2250000   0.7750000), wk =   0.0030000
        k(  274) = (   0.5750000  -0.1750000   0.7250000), wk =   0.0030000
        k(  275) = (   0.5250000  -0.1250000   0.6750000), wk =   0.0030000
        k(  276) = (   0.4750000  -0.0750000   0.6250000), wk =   0.0030000
        k(  277) = (   0.4250000  -0.0250000   0.5750000), wk =   0.0030000
        k(  278) = (   0.3750000   0.0250000   0.5250000), wk =   0.0030000
        k(  279) = (   0.3250000   0.0750000   0.4750000), wk =   0.0030000
        k(  280) = (   0.2750000   0.1250000   0.4250000), wk =   0.0030000
        k(  281) = (  -0.0750000   0.5750000   0.0750000), wk =   0.0015000
        k(  282) = (  -0.1250000   0.6250000   0.0250000), wk =   0.0030000
        k(  283) = (  -0.1750000   0.6750000  -0.0250000), wk =   0.0030000
        k(  284) = (  -0.2250000   0.7250000  -0.0750000), wk =   0.0030000
        k(  285) = (   0.7250000  -0.2250000   0.8750000), wk =   0.0030000
        k(  286) = (   0.6750000  -0.1750000   0.8250000), wk =   0.0030000
        k(  287) = (   0.6250000  -0.1250000   0.7750000), wk =   0.0030000
        k(  288) = (   0.5750000  -0.0750000   0.7250000), wk =   0.0030000
        k(  289) = (   0.5250000  -0.0250000   0.6750000), wk =   0.0030000
        k(  290) = (   0.4750000   0.0250000   0.6250000), wk =   0.0030000
        k(  291) = (   0.4250000   0.0750000   0.5750000), wk =   0.0030000
        k(  292) = (   0.3750000   0.1250000   0.5250000), wk =   0.0030000
        k(  293) = (   0.3250000   0.1750000   0.4750000), wk =   0.0030000
        k(  294) = (  -0.0750000   0.6750000   0.0750000), wk =   0.0015000
        k(  295) = (  -0.1250000   0.7250000   0.0250000), wk =   0.0030000
        k(  296) = (  -0.1750000   0.7750000  -0.0250000), wk =   0.0030000
        k(  297) = (   0.7750000  -0.1750000   0.9250000), wk =   0.0030000
        k(  298) = (   0.7250000  -0.1250000   0.8750000), wk =   0.0030000
        k(  299) = (   0.6750000  -0.0750000   0.8250000), wk =   0.0030000
        k(  300) = (   0.6250000  -0.0250000   0.7750000), wk =   0.0030000
        k(  301) = (   0.5750000   0.0250000   0.7250000), wk =   0.0030000
        k(  302) = (   0.5250000   0.0750000   0.6750000), wk =   0.0030000
        k(  303) = (   0.4750000   0.1250000   0.6250000), wk =   0.0030000
        k(  304) = (   0.4250000   0.1750000   0.5750000), wk =   0.0030000
        k(  305) = (   0.3750000   0.2250000   0.5250000), wk =   0.0030000
        k(  306) = (  -0.0750000   0.7750000   0.0750000), wk =   0.0015000
        k(  307) = (  -0.1250000   0.8250000   0.0250000), wk =   0.0030000
        k(  308) = (   0.8250000  -0.1250000   0.9750000), wk =   0.0030000
        k(  309) = (   0.7750000  -0.0750000   0.9250000), wk =   0.0030000
        k(  310) = (   0.7250000  -0.0250000   0.8750000), wk =   0.0030000
        k(  311) = (   0.6750000   0.0250000   0.8250000), wk =   0.0030000
        k(  312) = (   0.6250000   0.0750000   0.7750000), wk =   0.0030000
        k(  313) = (   0.5750000   0.1250000   0.7250000), wk =   0.0030000
        k(  314) = (   0.5250000   0.1750000   0.6750000), wk =   0.0030000
        k(  315) = (   0.4750000   0.2250000   0.6250000), wk =   0.0030000
        k(  316) = (   0.4250000   0.2750000   0.5750000), wk =   0.0030000
        k(  317) = (  -0.0750000   0.8750000   0.0750000), wk =   0.0015000
        k(  318) = (   0.8750000  -0.0750000   1.0250000), wk =   0.0030000
        k(  319) = (   0.8250000  -0.0250000   0.9750000), wk =   0.0030000
        k(  320) = (   0.7750000   0.0250000   0.9250000), wk =   0.0030000
        k(  321) = (   0.7250000   0.0750000   0.8750000), wk =   0.0030000
        k(  322) = (   0.6750000   0.1250000   0.8250000), wk =   0.0030000
        k(  323) = (   0.6250000   0.1750000   0.7750000), wk =   0.0030000
        k(  324) = (   0.5750000   0.2250000   0.7250000), wk =   0.0030000
        k(  325) = (   0.5250000   0.2750000   0.6750000), wk =   0.0030000
        k(  326) = (   0.4750000   0.3250000   0.6250000), wk =   0.0030000
        k(  327) = (  -0.0750000  -1.0250000   0.0750000), wk =   0.0015000
        k(  328) = (  -0.1250000  -0.9750000   0.0250000), wk =   0.0030000
        k(  329) = (  -0.1750000  -0.9250000  -0.0250000), wk =   0.0030000
        k(  330) = (  -0.2250000  -0.8750000  -0.0750000), wk =   0.0030000
        k(  331) = (  -0.2750000  -0.8250000  -0.1250000), wk =   0.0030000
        k(  332) = (  -0.3250000  -0.7750000  -0.1750000), wk =   0.0030000
        k(  333) = (  -0.3750000  -0.7250000  -0.2250000), wk =   0.0030000
        k(  334) = (  -0.4250000  -0.6750000  -0.2750000), wk =   0.0030000
        k(  335) = (  -0.0750000  -0.9250000   0.0750000), wk =   0.0015000
        k(  336) = (  -0.1250000  -0.8750000   0.0250000), wk =   0.0030000
        k(  337) = (  -0.1750000  -0.8250000  -0.0250000), wk =   0.0030000
        k(  338) = (  -0.2250000  -0.7750000  -0.0750000), wk =   0.0030000
        k(  339) = (  -0.2750000  -0.7250000  -0.1250000), wk =   0.0030000
        k(  340) = (  -0.3250000  -0.6750000  -0.1750000), wk =   0.0030000
        k(  341) = (  -0.3750000  -0.6250000  -0.2250000), wk =   0.0030000
        k(  342) = (  -0.0750000  -0.8250000   0.0750000), wk =   0.0015000
        k(  343) = (  -0.1250000  -0.7750000   0.0250000), wk =   0.0030000
        k(  344) = (  -0.1750000  -0.7250000  -0.0250000), wk =   0.0030000
        k(  345) = (  -0.2250000  -0.6750000  -0.0750000), wk =   0.0030000
        k(  346) = (  -0.2750000  -0.6250000  -0.1250000), wk =   0.0030000
        k(  347) = (  -0.3250000  -0.5750000  -0.1750000), wk =   0.0030000
        k(  348) = (  -0.0750000  -0.7250000   0.0750000), wk =   0.0015000
        k(  349) = (  -0.1250000  -0.6750000   0.0250000), wk =   0.0030000
        k(  350) = (  -0.1750000  -0.6250000  -0.0250000), wk =   0.0030000
        k(  351) = (  -0.2250000  -0.5750000  -0.0750000), wk =   0.0030000
        k(  352) = (  -0.2750000  -0.5250000  -0.1250000), wk =   0.0030000
        k(  353) = (  -0.0750000  -0.6250000   0.0750000), wk =   0.0015000
        k(  354) = (  -0.1250000  -0.5750000   0.0250000), wk =   0.0030000
        k(  355) = (  -0.1750000  -0.5250000  -0.0250000), wk =   0.0030000
        k(  356) = (  -0.2250000  -0.4750000  -0.0750000), wk =   0.0030000
        k(  357) = (  -0.0750000  -0.5250000   0.0750000), wk =   0.0015000
        k(  358) = (  -0.1250000  -0.4750000   0.0250000), wk =   0.0030000
        k(  359) = (  -0.1750000  -0.4250000  -0.0250000), wk =   0.0030000
        k(  360) = (  -0.0750000  -0.4250000   0.0750000), wk =   0.0015000
        k(  361) = (  -0.1250000  -0.3750000   0.0250000), wk =   0.0030000
        k(  362) = (  -0.0750000  -0.3250000   0.0750000), wk =   0.0015000
        k(  363) = (  -0.1250000   0.1250000   0.1250000), wk =   0.0005000
        k(  364) = (  -0.1750000   0.1750000   0.0750000), wk =   0.0015000
        k(  365) = (  -0.2250000   0.2250000   0.0250000), wk =   0.0015000
        k(  366) = (  -0.2750000   0.2750000  -0.0250000), wk =   0.0015000
        k(  367) = (  -0.3250000   0.3250000  -0.0750000), wk =   0.0015000
        k(  368) = (  -0.3750000   0.3750000  -0.1250000), wk =   0.0015000
        k(  369) = (  -0.4250000   0.4250000  -0.1750000), wk =   0.0015000
        k(  370) = (  -0.4750000   0.4750000  -0.2250000), wk =   0.0015000
        k(  371) = (   0.4750000  -0.4750000   0.7250000), wk =   0.0015000
        k(  372) = (   0.4250000  -0.4250000   0.6750000), wk =   0.0015000
        k(  373) = (   0.3750000  -0.3750000   0.6250000), wk =   0.0015000
        k(  374) = (   0.3250000  -0.3250000   0.5750000), wk =   0.0015000
        k(  375) = (   0.2750000  -0.2750000   0.5250000), wk =   0.0015000
        k(  376) = (   0.2250000  -0.2250000   0.4750000), wk =   0.0015000
        k(  377) = (   0.1750000  -0.1750000   0.4250000), wk =   0.0015000
        k(  378) = (   0.1250000  -0.1250000   0.3750000), wk =   0.0015000
        k(  379) = (  -0.1250000   0.2250000   0.1250000), wk =   0.0015000
        k(  380) = (  -0.1750000   0.2750000   0.0750000), wk =   0.0030000
        k(  381) = (  -0.2250000   0.3250000   0.0250000), wk =   0.0030000
        k(  382) = (  -0.2750000   0.3750000  -0.0250000), wk =   0.0030000
        k(  383) = (  -0.3250000   0.4250000  -0.0750000), wk =   0.0030000
        k(  384) = (  -0.3750000   0.4750000  -0.1250000), wk =   0.0030000
        k(  385) = (  -0.4250000   0.5250000  -0.1750000), wk =   0.0030000
        k(  386) = (   0.5250000  -0.4250000   0.7750000), wk =   0.0030000
        k(  387) = (   0.4750000  -0.3750000   0.7250000), wk =   0.0030000
        k(  388) = (   0.4250000  -0.3250000   0.6750000), wk =   0.0030000
        k(  389) = (   0.3750000  -0.2750000   0.6250000), wk =   0.0030000
        k(  390) = (   0.3250000  -0.2250000   0.5750000), wk =   0.0030000
        k(  391) = (   0.2750000  -0.1750000   0.5250000), wk =   0.0030000
        k(  392) = (   0.2250000  -0.1250000   0.4750000), wk =   0.0030000
        k(  393) = (   0.1750000  -0.0750000   0.4250000), wk =   0.0030000
        k(  394) = (  -0.1250000   0.3250000   0.1250000), wk =   0.0015000
        k(  395) = (  -0.1750000   0.3750000   0.0750000), wk =   0.0030000
        k(  396) = (  -0.2250000   0.4250000   0.0250000), wk =   0.0030000
        k(  397) = (  -0.2750000   0.4750000  -0.0250000), wk =   0.0030000
        k(  398) = (  -0.3250000   0.5250000  -0.0750000), wk =   0.0030000
        k(  399) = (  -0.3750000   0.5750000  -0.1250000), wk =   0.0030000
        k(  400) = (   0.5750000  -0.3750000   0.8250000), wk =   0.0030000
        k(  401) = (   0.5250000  -0.3250000   0.7750000), wk =   0.0030000
        k(  402) = (   0.4750000  -0.2750000   0.7250000), wk =   0.0030000
        k(  403) = (   0.4250000  -0.2250000   0.6750000), wk =   0.0030000
        k(  404) = (   0.3750000  -0.1750000   0.6250000), wk =   0.0030000
        k(  405) = (   0.3250000  -0.1250000   0.5750000), wk =   0.0030000
        k(  406) = (   0.2750000  -0.0750000   0.5250000), wk =   0.0030000
        k(  407) = (   0.2250000  -0.0250000   0.4750000), wk =   0.0030000
        k(  408) = (  -0.1250000   0.4250000   0.1250000), wk =   0.0015000
        k(  409) = (  -0.1750000   0.4750000   0.0750000), wk =   0.0030000
        k(  410) = (  -0.2250000   0.5250000   0.0250000), wk =   0.0030000
        k(  411) = (  -0.2750000   0.5750000  -0.0250000), wk =   0.0030000
        k(  412) = (  -0.3250000   0.6250000  -0.0750000), wk =   0.0030000
        k(  413) = (   0.6250000  -0.3250000   0.8750000), wk =   0.0030000
        k(  414) = (   0.5750000  -0.2750000   0.8250000), wk =   0.0030000
        k(  415) = (   0.5250000  -0.2250000   0.7750000), wk =   0.0030000
        k(  416) = (   0.4750000  -0.1750000   0.7250000), wk =   0.0030000
        k(  417) = (   0.4250000  -0.1250000   0.6750000), wk =   0.0030000
        k(  418) = (   0.3750000  -0.0750000   0.6250000), wk =   0.0030000
        k(  419) = (   0.3250000  -0.0250000   0.5750000), wk =   0.0030000
        k(  420) = (   0.2750000   0.0250000   0.5250000), wk =   0.0030000
        k(  421) = (  -0.1250000   0.5250000   0.1250000), wk =   0.0015000
        k(  422) = (  -0.1750000   0.5750000   0.0750000), wk =   0.0030000
        k(  423) = (  -0.2250000   0.6250000   0.0250000), wk =   0.0030000
        k(  424) = (  -0.2750000   0.6750000  -0.0250000), wk =   0.0030000
        k(  425) = (   0.6750000  -0.2750000   0.9250000), wk =   0.0030000
        k(  426) = (   0.6250000  -0.2250000   0.8750000), wk =   0.0030000
        k(  427) = (   0.5750000  -0.1750000   0.8250000), wk =   0.0030000
        k(  428) = (   0.5250000  -0.1250000   0.7750000), wk =   0.0030000
        k(  429) = (   0.4750000  -0.0750000   0.7250000), wk =   0.0030000
        k(  430) = (   0.4250000  -0.0250000   0.6750000), wk =   0.0030000
        k(  431) = (   0.3750000   0.0250000   0.6250000), wk =   0.0030000
        k(  432) = (   0.3250000   0.0750000   0.5750000), wk =   0.0030000
        k(  433) = (  -0.1250000   0.6250000   0.1250000), wk =   0.0015000
        k(  434) = (  -0.1750000   0.6750000   0.0750000), wk =   0.0030000
        k(  435) = (  -0.2250000   0.7250000   0.0250000), wk =   0.0030000
        k(  436) = (   0.7250000  -0.2250000   0.9750000), wk =   0.0030000
        k(  437) = (   0.6750000  -0.1750000   0.9250000), wk =   0.0030000
        k(  438) = (   0.6250000  -0.1250000   0.8750000), wk =   0.0030000
        k(  439) = (   0.5750000  -0.0750000   0.8250000), wk =   0.0030000
        k(  440) = (   0.5250000  -0.0250000   0.7750000), wk =   0.0030000
        k(  441) = (   0.4750000   0.0250000   0.7250000), wk =   0.0030000
        k(  442) = (   0.4250000   0.0750000   0.6750000), wk =   0.0030000
        k(  443) = (   0.3750000   0.1250000   0.6250000), wk =   0.0030000
        k(  444) = (  -0.1250000   0.7250000   0.1250000), wk =   0.0015000
        k(  445) = (  -0.1750000   0.7750000   0.0750000), wk =   0.0030000
        k(  446) = (   0.7750000  -0.1750000   1.0250000), wk =   0.0030000
        k(  447) = (   0.7250000  -0.1250000   0.9750000), wk =   0.0030000
        k(  448) = (   0.6750000  -0.0750000   0.9250000), wk =   0.0030000
        k(  449) = (   0.6250000  -0.0250000   0.8750000), wk =   0.0030000
        k(  450) = (   0.5750000   0.0250000   0.8250000), wk =   0.0030000
        k(  451) = (   0.5250000   0.0750000   0.7750000), wk =   0.0030000
        k(  452) = (   0.4750000   0.1250000   0.7250000), wk =   0.0030000
        k(  453) = (   0.4250000   0.1750000   0.6750000), wk =   0.0030000
        k(  454) = (  -0.1250000   0.8250000   0.1250000), wk =   0.0015000
        k(  455) = (   0.8250000  -0.1250000   1.0750000), wk =   0.0030000
        k(  456) = (   0.7750000  -0.0750000   1.0250000), wk =   0.0030000
        k(  457) = (   0.7250000  -0.0250000   0.9750000), wk =   0.0030000
        k(  458) = (   0.6750000   0.0250000   0.9250000), wk =   0.0030000
        k(  459) = (   0.6250000   0.0750000   0.8750000), wk =   0.0030000
        k(  460) = (   0.5750000   0.1250000   0.8250000), wk =   0.0030000
        k(  461) = (   0.5250000   0.1750000   0.7750000), wk =   0.0030000
        k(  462) = (   0.4750000   0.2250000   0.7250000), wk =   0.0030000
        k(  463) = (  -0.1250000  -1.0750000   0.1250000), wk =   0.0015000
        k(  464) = (  -0.1750000  -1.0250000   0.0750000), wk =   0.0030000
        k(  465) = (  -0.2250000  -0.9750000   0.0250000), wk =   0.0030000
        k(  466) = (  -0.2750000  -0.9250000  -0.0250000), wk =   0.0030000
        k(  467) = (  -0.3250000  -0.8750000  -0.0750000), wk =   0.0030000
        k(  468) = (  -0.3750000  -0.8250000  -0.1250000), wk =   0.0030000
        k(  469) = (  -0.4250000  -0.7750000  -0.1750000), wk =   0.0030000
        k(  470) = (  -0.1250000  -0.9750000   0.1250000), wk =   0.0015000
        k(  471) = (  -0.1750000  -0.9250000   0.0750000), wk =   0.0030000
        k(  472) = (  -0.2250000  -0.8750000   0.0250000), wk =   0.0030000
        k(  473) = (  -0.2750000  -0.8250000  -0.0250000), wk =   0.0030000
        k(  474) = (  -0.3250000  -0.7750000  -0.0750000), wk =   0.0030000
        k(  475) = (  -0.3750000  -0.7250000  -0.1250000), wk =   0.0030000
        k(  476) = (  -0.1250000  -0.8750000   0.1250000), wk =   0.0015000
        k(  477) = (  -0.1750000  -0.8250000   0.0750000), wk =   0.0030000
        k(  478) = (  -0.2250000  -0.7750000   0.0250000), wk =   0.0030000
        k(  479) = (  -0.2750000  -0.7250000  -0.0250000), wk =   0.0030000
        k(  480) = (  -0.3250000  -0.6750000  -0.0750000), wk =   0.0030000
        k(  481) = (  -0.1250000  -0.7750000   0.1250000), wk =   0.0015000
        k(  482) = (  -0.1750000  -0.7250000   0.0750000), wk =   0.0030000
        k(  483) = (  -0.2250000  -0.6750000   0.0250000), wk =   0.0030000
        k(  484) = (  -0.2750000  -0.6250000  -0.0250000), wk =   0.0030000
        k(  485) = (  -0.1250000  -0.6750000   0.1250000), wk =   0.0015000
        k(  486) = (  -0.1750000  -0.6250000   0.0750000), wk =   0.0030000
        k(  487) = (  -0.2250000  -0.5750000   0.0250000), wk =   0.0030000
        k(  488) = (  -0.1250000  -0.5750000   0.1250000), wk =   0.0015000
        k(  489) = (  -0.1750000  -0.5250000   0.0750000), wk =   0.0030000
        k(  490) = (  -0.1250000  -0.4750000   0.1250000), wk =   0.0015000
        k(  491) = (  -0.1750000   0.1750000   0.1750000), wk =   0.0005000
        k(  492) = (  -0.2250000   0.2250000   0.1250000), wk =   0.0015000
        k(  493) = (  -0.2750000   0.2750000   0.0750000), wk =   0.0015000
        k(  494) = (  -0.3250000   0.3250000   0.0250000), wk =   0.0015000
        k(  495) = (  -0.3750000   0.3750000  -0.0250000), wk =   0.0015000
        k(  496) = (  -0.4250000   0.4250000  -0.0750000), wk =   0.0015000
        k(  497) = (  -0.4750000   0.4750000  -0.1250000), wk =   0.0015000
        k(  498) = (   0.4750000  -0.4750000   0.8250000), wk =   0.0015000
        k(  499) = (   0.4250000  -0.4250000   0.7750000), wk =   0.0015000
        k(  500) = (   0.3750000  -0.3750000   0.7250000), wk =   0.0015000
        k(  501) = (   0.3250000  -0.3250000   0.6750000), wk =   0.0015000
        k(  502) = (   0.2750000  -0.2750000   0.6250000), wk =   0.0015000
        k(  503) = (   0.2250000  -0.2250000   0.5750000), wk =   0.0015000
        k(  504) = (   0.1750000  -0.1750000   0.5250000), wk =   0.0015000
        k(  505) = (  -0.1750000   0.2750000   0.1750000), wk =   0.0015000
        k(  506) = (  -0.2250000   0.3250000   0.1250000), wk =   0.0030000
        k(  507) = (  -0.2750000   0.3750000   0.0750000), wk =   0.0030000
        k(  508) = (  -0.3250000   0.4250000   0.0250000), wk =   0.0030000
        k(  509) = (  -0.3750000   0.4750000  -0.0250000), wk =   0.0030000
        k(  510) = (  -0.4250000   0.5250000  -0.0750000), wk =   0.0030000
        k(  511) = (   0.5250000  -0.4250000   0.8750000), wk =   0.0030000
        k(  512) = (   0.4750000  -0.3750000   0.8250000), wk =   0.0030000
        k(  513) = (   0.4250000  -0.3250000   0.7750000), wk =   0.0030000
        k(  514) = (   0.3750000  -0.2750000   0.7250000), wk =   0.0030000
        k(  515) = (   0.3250000  -0.2250000   0.6750000), wk =   0.0030000
        k(  516) = (   0.2750000  -0.1750000   0.6250000), wk =   0.0030000
        k(  517) = (   0.2250000  -0.1250000   0.5750000), wk =   0.0030000
        k(  518) = (  -0.1750000   0.3750000   0.1750000), wk =   0.0015000
        k(  519) = (  -0.2250000   0.4250000   0.1250000), wk =   0.0030000
        k(  520) = (  -0.2750000   0.4750000   0.0750000), wk =   0.0030000
        k(  521) = (  -0.3250000   0.5250000   0.0250000), wk =   0.0030000
        k(  522) = (  -0.3750000   0.5750000  -0.0250000), wk =   0.0030000
        k(  523) = (   0.5750000  -0.3750000   0.9250000), wk =   0.0030000
        k(  524) = (   0.5250000  -0.3250000   0.8750000), wk =   0.0030000
        k(  525) = (   0.4750000  -0.2750000   0.8250000), wk =   0.0030000
        k(  526) = (   0.4250000  -0.2250000   0.7750000), wk =   0.0030000
        k(  527) = (   0.3750000  -0.1750000   0.7250000), wk =   0.0030000
        k(  528) = (   0.3250000  -0.1250000   0.6750000), wk =   0.0030000
        k(  529) = (   0.2750000  -0.0750000   0.6250000), wk =   0.0030000
        k(  530) = (  -0.1750000   0.4750000   0.1750000), wk =   0.0015000
        k(  531) = (  -0.2250000   0.5250000   0.1250000), wk =   0.0030000
        k(  532) = (  -0.2750000   0.5750000   0.0750000), wk =   0.0030000
        k(  533) = (  -0.3250000   0.6250000   0.0250000), wk =   0.0030000
        k(  534) = (   0.6250000  -0.3250000   0.9750000), wk =   0.0030000
        k(  535) = (   0.5750000  -0.2750000   0.9250000), wk =   0.0030000
        k(  536) = (   0.5250000  -0.2250000   0.8750000), wk =   0.0030000
        k(  537) = (   0.4750000  -0.1750000   0.8250000), wk =   0.0030000
        k(  538) = (   0.4250000  -0.1250000   0.7750000), wk =   0.0030000
        k(  539) = (   0.3750000  -0.0750000   0.7250000), wk =   0.0030000
        k(  540) = (   0.3250000  -0.0250000   0.6750000), wk =   0.0030000
        k(  541) = (  -0.1750000   0.5750000   0.1750000), wk =   0.0015000
        k(  542) = (  -0.2250000   0.6250000   0.1250000), wk =   0.0030000
        k(  543) = (  -0.2750000   0.6750000   0.0750000), wk =   0.0030000
        k(  544) = (   0.6750000  -0.2750000   1.0250000), wk =   0.0030000
        k(  545) = (   0.6250000  -0.2250000   0.9750000), wk =   0.0030000
        k(  546) = (   0.5750000  -0.1750000   0.9250000), wk =   0.0030000
        k(  547) = (   0.5250000  -0.1250000   0.8750000), wk =   0.0030000
        k(  548) = (   0.4750000  -0.0750000   0.8250000), wk =   0.0030000
        k(  549) = (   0.4250000  -0.0250000   0.7750000), wk =   0.0030000
        k(  550) = (   0.3750000   0.0250000   0.7250000), wk =   0.0030000
        k(  551) = (  -0.1750000   0.6750000   0.1750000), wk =   0.0015000
        k(  552) = (  -0.2250000   0.7250000   0.1250000), wk =   0.0030000
        k(  553) = (   0.7250000  -0.2250000   1.0750000), wk =   0.0030000
        k(  554) = (   0.6750000  -0.1750000   1.0250000), wk =   0.0030000
        k(  555) = (   0.6250000  -0.1250000   0.9750000), wk =   0.0030000
        k(  556) = (   0.5750000  -0.0750000   0.9250000), wk =   0.0030000
        k(  557) = (   0.5250000  -0.0250000   0.8750000), wk =   0.0030000
        k(  558) = (   0.4750000   0.0250000   0.8250000), wk =   0.0030000
        k(  559) = (   0.4250000   0.0750000   0.7750000), wk =   0.0030000
        k(  560) = (  -0.1750000   0.7750000   0.1750000), wk =   0.0015000
        k(  561) = (   0.7750000  -0.1750000   1.1250000), wk =   0.0030000
        k(  562) = (   0.7250000  -0.1250000   1.0750000), wk =   0.0030000
        k(  563) = (   0.6750000  -0.0750000   1.0250000), wk =   0.0030000
        k(  564) = (   0.6250000  -0.0250000   0.9750000), wk =   0.0030000
        k(  565) = (   0.5750000   0.0250000   0.9250000), wk =   0.0030000
        k(  566) = (   0.5250000   0.0750000   0.8750000), wk =   0.0030000
        k(  567) = (   0.4750000   0.1250000   0.8250000), wk =   0.0030000
        k(  568) = (  -0.1750000  -1.1250000   0.1750000), wk =   0.0015000
        k(  569) = (  -0.2250000  -1.0750000   0.1250000), wk =   0.0030000
        k(  570) = (  -0.2750000  -1.0250000   0.0750000), wk =   0.0030000
        k(  571) = (  -0.3250000  -0.9750000   0.0250000), wk =   0.0030000
        k(  572) = (  -0.3750000  -0.9250000  -0.0250000), wk =   0.0030000
        k(  573) = (  -0.4250000  -0.8750000  -0.0750000), wk =   0.0030000
        k(  574) = (  -0.1750000  -1.0250000   0.1750000), wk =   0.0015000
        k(  575) = (  -0.2250000  -0.9750000   0.1250000), wk =   0.0030000
        k(  576) = (  -0.2750000  -0.9250000   0.0750000), wk =   0.0030000
        k(  577) = (  -0.3250000  -0.8750000   0.0250000), wk =   0.0030000
        k(  578) = (  -0.3750000  -0.8250000  -0.0250000), wk =   0.0030000
        k(  579) = (  -0.1750000  -0.9250000   0.1750000), wk =   0.0015000
        k(  580) = (  -0.2250000  -0.8750000   0.1250000), wk =   0.0030000
        k(  581) = (  -0.2750000  -0.8250000   0.0750000), wk =   0.0030000
        k(  582) = (  -0.3250000  -0.7750000   0.0250000), wk =   0.0030000
        k(  583) = (  -0.1750000  -0.8250000   0.1750000), wk =   0.0015000
        k(  584) = (  -0.2250000  -0.7750000   0.1250000), wk =   0.0030000
        k(  585) = (  -0.2750000  -0.7250000   0.0750000), wk =   0.0030000
        k(  586) = (  -0.1750000  -0.7250000   0.1750000), wk =   0.0015000
        k(  587) = (  -0.2250000  -0.6750000   0.1250000), wk =   0.0030000
        k(  588) = (  -0.1750000  -0.6250000   0.1750000), wk =   0.0015000
        k(  589) = (  -0.2250000   0.2250000   0.2250000), wk =   0.0005000
        k(  590) = (  -0.2750000   0.2750000   0.1750000), wk =   0.0015000
        k(  591) = (  -0.3250000   0.3250000   0.1250000), wk =   0.0015000
        k(  592) = (  -0.3750000   0.3750000   0.0750000), wk =   0.0015000
        k(  593) = (  -0.4250000   0.4250000   0.0250000), wk =   0.0015000
        k(  594) = (  -0.4750000   0.4750000  -0.0250000), wk =   0.0015000
        k(  595) = (   0.4750000  -0.4750000   0.9250000), wk =   0.0015000
        k(  596) = (   0.4250000  -0.4250000   0.8750000), wk =   0.0015000
        k(  597) = (   0.3750000  -0.3750000   0.8250000), wk =   0.0015000
        k(  598) = (   0.3250000  -0.3250000   0.7750000), wk =   0.0015000
        k(  599) = (   0.2750000  -0.2750000   0.7250000), wk =   0.0015000
        k(  600) = (   0.2250000  -0.2250000   0.6750000), wk =   0.0015000
        k(  601) = (  -0.2250000   0.3250000   0.2250000), wk =   0.0015000
        k(  602) = (  -0.2750000   0.3750000   0.1750000), wk =   0.0030000
        k(  603) = (  -0.3250000   0.4250000   0.1250000), wk =   0.0030000
        k(  604) = (  -0.3750000   0.4750000   0.0750000), wk =   0.0030000
        k(  605) = (  -0.4250000   0.5250000   0.0250000), wk =   0.0030000
        k(  606) = (   0.5250000  -0.4250000   0.9750000), wk =   0.0030000
        k(  607) = (   0.4750000  -0.3750000   0.9250000), wk =   0.0030000
        k(  608) = (   0.4250000  -0.3250000   0.8750000), wk =   0.0030000
        k(  609) = (   0.3750000  -0.2750000   0.8250000), wk =   0.0030000
        k(  610) = (   0.3250000  -0.2250000   0.7750000), wk =   0.0030000
        k(  611) = (   0.2750000  -0.1750000   0.7250000), wk =   0.0030000
        k(  612) = (  -0.2250000   0.4250000   0.2250000), wk =   0.0015000
        k(  613) = (  -0.2750000   0.4750000   0.1750000), wk =   0.0030000
        k(  614) = (  -0.3250000   0.5250000   0.1250000), wk =   0.0030000
        k(  615) = (  -0.3750000   0.5750000   0.0750000), wk =   0.0030000
        k(  616) = (   0.5750000  -0.3750000   1.0250000), wk =   0.0030000
        k(  617) = (   0.5250000  -0.3250000   0.9750000), wk =   0.0030000
        k(  618) = (   0.4750000  -0.2750000   0.9250000), wk =   0.0030000
        k(  619) = (   0.4250000  -0.2250000   0.8750000), wk =   0.0030000
        k(  620) = (   0.3750000  -0.1750000   0.8250000), wk =   0.0030000
        k(  621) = (   0.3250000  -0.1250000   0.7750000), wk =   0.0030000
        k(  622) = (  -0.2250000   0.5250000   0.2250000), wk =   0.0015000
        k(  623) = (  -0.2750000   0.5750000   0.1750000), wk =   0.0030000
        k(  624) = (  -0.3250000   0.6250000   0.1250000), wk =   0.0030000
        k(  625) = (   0.6250000  -0.3250000   1.0750000), wk =   0.0030000
        k(  626) = (   0.5750000  -0.2750000   1.0250000), wk =   0.0030000
        k(  627) = (   0.5250000  -0.2250000   0.9750000), wk =   0.0030000
        k(  628) = (   0.4750000  -0.1750000   0.9250000), wk =   0.0030000
        k(  629) = (   0.4250000  -0.1250000   0.8750000), wk =   0.0030000
        k(  630) = (   0.3750000  -0.0750000   0.8250000), wk =   0.0030000
        k(  631) = (  -0.2250000   0.6250000   0.2250000), wk =   0.0015000
        k(  632) = (  -0.2750000   0.6750000   0.1750000), wk =   0.0030000
        k(  633) = (   0.6750000  -0.2750000   1.1250000), wk =   0.0030000
        k(  634) = (   0.6250000  -0.2250000   1.0750000), wk =   0.0030000
        k(  635) = (   0.5750000  -0.1750000   1.0250000), wk =   0.0030000
        k(  636) = (   0.5250000  -0.1250000   0.9750000), wk =   0.0030000
        k(  637) = (   0.4750000  -0.0750000   0.9250000), wk =   0.0030000
        k(  638) = (   0.4250000  -0.0250000   0.8750000), wk =   0.0030000
        k(  639) = (  -0.2250000   0.7250000   0.2250000), wk =   0.0015000
        k(  640) = (   0.7250000  -0.2250000   1.1750000), wk =   0.0030000
        k(  641) = (   0.6750000  -0.1750000   1.1250000), wk =   0.0030000
        k(  642) = (   0.6250000  -0.1250000   1.0750000), wk =   0.0030000
        k(  643) = (   0.5750000  -0.0750000   1.0250000), wk =   0.0030000
        k(  644) = (   0.5250000  -0.0250000   0.9750000), wk =   0.0030000
        k(  645) = (   0.4750000   0.0250000   0.9250000), wk =   0.0030000
        k(  646) = (  -0.2250000  -1.1750000   0.2250000), wk =   0.0015000
        k(  647) = (  -0.2750000  -1.1250000   0.1750000), wk =   0.0030000
        k(  648) = (  -0.3250000  -1.0750000   0.1250000), wk =   0.0030000
        k(  649) = (  -0.3750000  -1.0250000   0.0750000), wk =   0.0030000
        k(  650) = (  -0.4250000  -0.9750000   0.0250000), wk =   0.0030000
        k(  651) = (  -0.2250000  -1.0750000   0.2250000), wk =   0.0015000
        k(  652) = (  -0.2750000  -1.0250000   0.1750000), wk =   0.0030000
        k(  653) = (  -0.3250000  -0.9750000   0.1250000), wk =   0.0030000
        k(  654) = (  -0.3750000  -0.9250000   0.0750000), wk =   0.0030000
        k(  655) = (  -0.2250000  -0.9750000   0.2250000), wk =   0.0015000
        k(  656) = (  -0.2750000  -0.9250000   0.1750000), wk =   0.0030000
        k(  657) = (  -0.3250000  -0.8750000   0.1250000), wk =   0.0030000
        k(  658) = (  -0.2250000  -0.8750000   0.2250000), wk =   0.0015000
        k(  659) = (  -0.2750000  -0.8250000   0.1750000), wk =   0.0030000
        k(  660) = (  -0.2250000  -0.7750000   0.2250000), wk =   0.0015000
        k(  661) = (  -0.2750000   0.2750000   0.2750000), wk =   0.0005000
        k(  662) = (  -0.3250000   0.3250000   0.2250000), wk =   0.0015000
        k(  663) = (  -0.3750000   0.3750000   0.1750000), wk =   0.0015000
        k(  664) = (  -0.4250000   0.4250000   0.1250000), wk =   0.0015000
        k(  665) = (  -0.4750000   0.4750000   0.0750000), wk =   0.0015000
        k(  666) = (   0.4750000  -0.4750000   1.0250000), wk =   0.0015000
        k(  667) = (   0.4250000  -0.4250000   0.9750000), wk =   0.0015000
        k(  668) = (   0.3750000  -0.3750000   0.9250000), wk =   0.0015000
        k(  669) = (   0.3250000  -0.3250000   0.8750000), wk =   0.0015000
        k(  670) = (   0.2750000  -0.2750000   0.8250000), wk =   0.0015000
        k(  671) = (  -0.2750000   0.3750000   0.2750000), wk =   0.0015000
        k(  672) = (  -0.3250000   0.4250000   0.2250000), wk =   0.0030000
        k(  673) = (  -0.3750000   0.4750000   0.1750000), wk =   0.0030000
        k(  674) = (  -0.4250000   0.5250000   0.1250000), wk =   0.0030000
        k(  675) = (   0.5250000  -0.4250000   1.0750000), wk =   0.0030000
        k(  676) = (   0.4750000  -0.3750000   1.0250000), wk =   0.0030000
        k(  677) = (   0.4250000  -0.3250000   0.9750000), wk =   0.0030000
        k(  678) = (   0.3750000  -0.2750000   0.9250000), wk =   0.0030000
        k(  679) = (   0.3250000  -0.2250000   0.8750000), wk =   0.0030000
        k(  680) = (  -0.2750000   0.4750000   0.2750000), wk =   0.0015000
        k(  681) = (  -0.3250000   0.5250000   0.2250000), wk =   0.0030000
        k(  682) = (  -0.3750000   0.5750000   0.1750000), wk =   0.0030000
        k(  683) = (   0.5750000  -0.3750000   1.1250000), wk =   0.0030000
        k(  684) = (   0.5250000  -0.3250000   1.0750000), wk =   0.0030000
        k(  685) = (   0.4750000  -0.2750000   1.0250000), wk =   0.0030000
        k(  686) = (   0.4250000  -0.2250000   0.9750000), wk =   0.0030000
        k(  687) = (   0.3750000  -0.1750000   0.9250000), wk =   0.0030000
        k(  688) = (  -0.2750000   0.5750000   0.2750000), wk =   0.0015000
        k(  689) = (  -0.3250000   0.6250000   0.2250000), wk =   0.0030000
        k(  690) = (   0.6250000  -0.3250000   1.1750000), wk =   0.0030000
        k(  691) = (   0.5750000  -0.2750000   1.1250000), wk =   0.0030000
        k(  692) = (   0.5250000  -0.2250000   1.0750000), wk =   0.0030000
        k(  693) = (   0.4750000  -0.1750000   1.0250000), wk =   0.0030000
        k(  694) = (   0.4250000  -0.1250000   0.9750000), wk =   0.0030000
        k(  695) = (  -0.2750000   0.6750000   0.2750000), wk =   0.0015000
        k(  696) = (   0.6750000  -0.2750000   1.2250000), wk =   0.0030000
        k(  697) = (   0.6250000  -0.2250000   1.1750000), wk =   0.0030000
        k(  698) = (   0.5750000  -0.1750000   1.1250000), wk =   0.0030000
        k(  699) = (   0.5250000  -0.1250000   1.0750000), wk =   0.0030000
        k(  700) = (   0.4750000  -0.0750000   1.0250000), wk =   0.0030000
        k(  701) = (  -0.2750000  -1.2250000   0.2750000), wk =   0.0015000
        k(  702) = (  -0.3250000  -1.1750000   0.2250000), wk =   0.0030000
        k(  703) = (  -0.3750000  -1.1250000   0.1750000), wk =   0.0030000
        k(  704) = (  -0.4250000  -1.0750000   0.1250000), wk =   0.0030000
        k(  705) = (  -0.2750000  -1.1250000   0.2750000), wk =   0.0015000
        k(  706) = (  -0.3250000  -1.0750000   0.2250000), wk =   0.0030000
        k(  707) = (  -0.3750000  -1.0250000   0.1750000), wk =   0.0030000
        k(  708) = (  -0.2750000  -1.0250000   0.2750000), wk =   0.0015000
        k(  709) = (  -0.3250000  -0.9750000   0.2250000), wk =   0.0030000
        k(  710) = (  -0.2750000  -0.9250000   0.2750000), wk =   0.0015000
        k(  711) = (  -0.3250000   0.3250000   0.3250000), wk =   0.0005000
        k(  712) = (  -0.3750000   0.3750000   0.2750000), wk =   0.0015000
        k(  713) = (  -0.4250000   0.4250000   0.2250000), wk =   0.0015000
        k(  714) = (  -0.4750000   0.4750000   0.1750000), wk =   0.0015000
        k(  715) = (   0.4750000  -0.4750000   1.1250000), wk =   0.0015000
        k(  716) = (   0.4250000  -0.4250000   1.0750000), wk =   0.0015000
        k(  717) = (   0.3750000  -0.3750000   1.0250000), wk =   0.0015000
        k(  718) = (   0.3250000  -0.3250000   0.9750000), wk =   0.0015000
        k(  719) = (  -0.3250000   0.4250000   0.3250000), wk =   0.0015000
        k(  720) = (  -0.3750000   0.4750000   0.2750000), wk =   0.0030000
        k(  721) = (  -0.4250000   0.5250000   0.2250000), wk =   0.0030000
        k(  722) = (   0.5250000  -0.4250000   1.1750000), wk =   0.0030000
        k(  723) = (   0.4750000  -0.3750000   1.1250000), wk =   0.0030000
        k(  724) = (   0.4250000  -0.3250000   1.0750000), wk =   0.0030000
        k(  725) = (   0.3750000  -0.2750000   1.0250000), wk =   0.0030000
        k(  726) = (  -0.3250000   0.5250000   0.3250000), wk =   0.0015000
        k(  727) = (  -0.3750000   0.5750000   0.2750000), wk =   0.0030000
        k(  728) = (   0.5750000  -0.3750000   1.2250000), wk =   0.0030000
        k(  729) = (   0.5250000  -0.3250000   1.1750000), wk =   0.0030000
        k(  730) = (   0.4750000  -0.2750000   1.1250000), wk =   0.0030000
[...]

     1.1533   6.4958  13.3568  13.6427  17.1413  22.3936

     occupation numbers 
     1.0000   1.0171   0.0000   0.0000   0.0000   0.0000

          k = 0.6250-0.3250 1.1750 (    86 PWs)   bands (ev):

     1.8216   6.3219  12.0137  12.4594  18.3918  21.7248

     occupation numbers 
     1.0000   1.0016   0.0000   0.0000   0.0000   0.0000

          k = 0.5750-0.2750 1.1250 (    86 PWs)   bands (ev):

     2.6110   6.2616  10.4649  11.6370  19.7630  21.0892

     occupation numbers 
     1.0000   1.0006   0.0000   0.0000   0.0000   0.0000

          k = 0.5250-0.2250 1.0750 (    88 PWs)   bands (ev):

     3.5153   6.2920   9.0211  10.9303  20.2485  21.4820

     occupation numbers 
     1.0000   1.0010   0.0000   0.0000   0.0000   0.0000

          k = 0.4750-0.1750 1.0250 (    87 PWs)   bands (ev):

     4.5325   6.3195   7.8029  10.3504  19.7537  22.9534

     occupation numbers 
     1.0000   1.0016   0.0000   0.0000   0.0000   0.0000

          k = 0.4250-0.1250 0.9750 (    86 PWs)   bands (ev):

     5.6472   5.8496   7.3093   9.8985  19.2900  22.9019

     occupation numbers 
     1.0000   1.0000   0.0915   0.0000   0.0000   0.0000

          k =-0.2750 0.6750 0.2750 (    83 PWs)   bands (ev):

     1.6566   6.1740  12.2889  14.2371  15.9625  23.2991

     occupation numbers 
     1.0000   1.0001   0.0000   0.0000   0.0000   0.0000

          k = 0.6750-0.2750 1.2250 (    85 PWs)   bands (ev):

     2.2799   5.9685  11.3115  13.1445  16.6689  22.9850

     occupation numbers 
     1.0000   1.0000   0.0000   0.0000   0.0000   0.0000

          k = 0.6250-0.2250 1.1750 (    86 PWs)   bands (ev):

     3.0219   5.8777  10.4427  11.6242  18.0049  22.5574

     occupation numbers 
     1.0000   1.0000   0.0000   0.0000   0.0000   0.0000

          k = 0.5750-0.1750 1.1250 (    86 PWs)   bands (ev):

     3.8790   5.8992   9.6672  10.1742  19.4906  22.0610

     occupation numbers 
     1.0000   1.0000   0.0000   0.0000   0.0000   0.0000

          k = 0.5250-0.1250 1.0750 (    88 PWs)   bands (ev):

     4.8418   6.0111   8.6849   9.1614  20.9408  21.6779

     occupation numbers 
     1.0000   1.0000   0.0000   0.0000   0.0000   0.0000

          k = 0.4750-0.0750 1.0250 (    84 PWs)   bands (ev):

     5.8863   6.1264   7.5767   8.6661  20.9584  22.6535

     occupation numbers 
     1.0000   1.0000   0.0022   0.0000   0.0000   0.0000

          k =-0.2750-1.2250 0.2750 (    85 PWs)   bands (ev):

     2.8584   5.7274  10.2961  13.8328  15.5398  23.0366

     occupation numbers 
     1.0000   1.0000   0.0000   0.0000   0.0000   0.0000

          k =-0.3250-1.1750 0.2250 (    86 PWs)   bands (ev):

     3.5538   5.6016   9.3936  12.8034  16.3268  22.9257

     occupation numbers 
     1.0000   1.0000   0.0000   0.0000   0.0000   0.0000

          k =-0.3750-1.1250 0.1750 (    85 PWs)   bands (ev):

     4.3558   5.5947   8.6146  11.3493  17.7526  22.8575

     occupation numbers 
     1.0000   1.0000   0.0000   0.0000   0.0000   0.0000

          k =-0.4250-1.0750 0.1250 (    87 PWs)   bands (ev):

     5.2432   5.6972   7.9739   9.9394  19.3220  22.7950

     occupation numbers 
     1.0000   1.0000   0.0000   0.0000   0.0000   0.0000

          k =-0.2750-1.1250 0.2750 (    87 PWs)   bands (ev):

     4.1935   5.4389   8.4538  13.5762  15.2650  22.8452

     occupation numbers 
     1.0000   1.0000   0.0000   0.0000   0.0000   0.0000

          k =-0.3250-1.0750 0.2250 (    84 PWs)   bands (ev):

     4.9251   5.4005   7.6626  12.6168  16.1447  22.8164

     occupation numbers 
     1.0000   1.0000   0.0004   0.0000   0.0000   0.0000

          k =-0.3750-1.0250 0.1750 (    85 PWs)   bands (ev):

     5.4624   5.6526   7.1136  11.2319  17.6421  22.8475

     occupation numbers 
     1.0000   1.0000   0.4512   0.0000   0.0000   0.0000

          k =-0.2750-1.0250 0.2750 (    87 PWs)   bands (ev):

     5.3080   5.4937   6.9456  13.4660  15.1462  22.7593

     occupation numbers 
     1.0000   1.0000   0.8889   0.0000   0.0000   0.0000

          k =-0.3250-0.9750 0.2250 (    85 PWs)   bands (ev):

     5.3485   5.5339   6.9909  12.5767  16.1048  22.7878

     occupation numbers 
     1.0000   1.0000   0.7830   0.0000   0.0000   0.0000

          k =-0.2750-0.9250 0.2750 (    85 PWs)   bands (ev):

     4.8842   5.3606   7.6197  13.5031  15.1927  22.7953

     occupation numbers 
     1.0000   1.0000   0.0010   0.0000   0.0000   0.0000

          k =-0.3250 0.3250 0.3250 (    74 PWs)   bands (ev):

    -0.7851   7.8764  17.2383  17.2383  19.9497  19.9499

     occupation numbers 
     1.0000   0.0000   0.0000   0.0000   0.0000   0.0000

          k =-0.3750 0.3750 0.2750 (    78 PWs)   bands (ev):

    -0.4483   7.3900  15.8752  18.0705  18.9729  20.0614

     occupation numbers 
     1.0000   0.0359   0.0000   0.0000   0.0000   0.0000

          k =-0.4250 0.4250 0.2250 (    81 PWs)   bands (ev):

     0.0171   7.0226  14.1837  17.5296  19.4043  19.6092

     occupation numbers 
     1.0000   0.6999   0.0000   0.0000   0.0000   0.0000

          k =-0.4750 0.4750 0.1750 (    81 PWs)   bands (ev):

     0.6099   6.7707  12.4784  16.6121  18.5502  20.8535

     occupation numbers 
     1.0000   1.0816   0.0000   0.0000   0.0000   0.0000

          k = 0.4750-0.4750 1.1250 (    85 PWs)   bands (ev):

     1.3206   6.6257  10.8343  15.7748  17.6998  22.2324

     occupation numbers 
     1.0000   1.0536   0.0000   0.0000   0.0000   0.0000

          k = 0.4250-0.4250 1.0750 (    87 PWs)   bands (ev):

     2.1564   6.5726   9.3100  15.0425  16.9166  23.7368

     occupation numbers 
     1.0000   1.0361   0.0000   0.0000   0.0000   0.0000

          k = 0.3750-0.3750 1.0250 (    89 PWs)   bands (ev):

     3.1077   6.5162   8.0113  14.4187  16.2266  25.3268

     occupation numbers 
     1.0000   1.0213   0.0000   0.0000   0.0000   0.0000

          k = 0.3250-0.3250 0.9750 (    89 PWs)   bands (ev):

     4.1749   5.9628   7.4375  13.9055  15.6490  24.4840

     occupation numbers 
     1.0000   1.0000   0.0192   0.0000   0.0000   0.0000

          k =-0.3250 0.4250 0.3250 (    79 PWs)   bands (ev):

    -0.1506   6.8693  16.3309  17.4954  18.1913  20.4845

     occupation numbers 
     1.0000   1.0172   0.0000   0.0000   0.0000   0.0000

          k =-0.3750 0.4750 0.2750 (    81 PWs)   bands (ev):

     0.2723   6.4629  15.0782  16.9357  18.3749  20.3010

     occupation numbers 
     1.0000   1.0117   0.0000   0.0000   0.0000   0.0000

          k =-0.4250 0.5250 0.2250 (    83 PWs)   bands (ev):

     0.8184   6.1737  13.4050  15.9643  19.2600  19.8212

     occupation numbers 
     1.0000   1.0001   0.0000   0.0000   0.0000   0.0000

          k = 0.5250-0.4250 1.1750 (    83 PWs)   bands (ev):

     1.4907   6.0031  11.7464  15.0731  18.6469  20.9382

     occupation numbers 
     1.0000   1.0000   0.0000   0.0000   0.0000   0.0000

          k = 0.4750-0.3750 1.1250 (    85 PWs)   bands (ev):

     2.2837   5.9398  10.1683  14.2822  17.8781  22.3711

     occupation numbers 
     1.0000   1.0000   0.0000   0.0000   0.0000   0.0000

          k = 0.4250-0.3250 1.0750 (    86 PWs)   bands (ev):

     3.1932   5.9726   8.7114  13.6019  17.1873  23.8963

     occupation numbers 
     1.0000   1.0000   0.0000   0.0000   0.0000   0.0000

          k = 0.3750-0.2750 1.0250 (    87 PWs)   bands (ev):

     4.2171   6.0030   7.4822  13.0310  16.5918  24.4397

     occupation numbers 
     1.0000   1.0000   0.0101   0.0000   0.0000   0.0000

          k =-0.3250 0.5250 0.3250 (    83 PWs)   bands (ev):

     0.6514   6.0175  15.5596  15.8895  17.2441  21.1955

     occupation numbers 
     1.0000   1.0000   0.0000   0.0000   0.0000   0.0000

          k =-0.3750 0.5750 0.2750 (    81 PWs)   bands (ev):

     1.1582   5.6939  14.3815  14.8651  17.8556  21.0157

     occupation numbers 
     1.0000   1.0000   0.0000   0.0000   0.0000   0.0000

          k = 0.5750-0.3750 1.2250 (    84 PWs)   bands (ev):

     1.7820   5.4848  12.7572  13.9186  19.0275  20.3530

     occupation numbers 
     1.0000   1.0000   0.0000   0.0000   0.0000   0.0000

          k = 0.5250-0.3250 1.1750 (    85 PWs)   bands (ev):

     2.5311   5.3931  11.1590  13.0774  19.3987  20.6213

     occupation numbers 
     1.0000   1.0000   0.0000   0.0000   0.0000   0.0000

          k = 0.4750-0.2750 1.1250 (    86 PWs)   bands (ev):

     3.3979   5.4138   9.6501  12.3454  18.7600  22.0628

     occupation numbers 
     1.0000   1.0000   0.0000   0.0000   0.0000   0.0000

          k = 0.4250-0.2250 1.0750 (    86 PWs)   bands (ev):

     4.3781   5.5320   8.2670  11.7287  18.1579  23.5443

     occupation numbers 
     1.0000   1.0000   0.0000   0.0000   0.0000   0.0000

          k =-0.3250 0.6250 0.3250 (    85 PWs)   bands (ev):

     1.6151   5.3271  13.7771  14.9345  16.6861  22.0670

     occupation numbers 
     1.0000   1.0000   0.0000   0.0000   0.0000   0.0000

          k = 0.6250-0.3250 1.2750 (    84 PWs)   bands (ev):

     2.2001   5.0829  12.7817  13.8244  17.3528  21.9163

     occupation numbers 
     1.0000   1.0000   0.0000   0.0000   0.0000   0.0000

          k = 0.5750-0.2750 1.2250 (    86 PWs)   bands (ev):

     2.9030   4.9538  11.8690  12.2872  18.6353  21.2772

     occupation numbers 
     1.0000   1.0000   0.0000   0.0000   0.0000   0.0000

          k = 0.5250-0.2250 1.1750 (    86 PWs)   bands (ev):

     3.7233   4.9459  10.6954  11.1571  19.9407  20.7583

     occupation numbers 
     1.0000   1.0000   0.0000   0.0000   0.0000   0.0000

          k = 0.4750-0.1750 1.1250 (    87 PWs)   bands (ev):

     4.6532   5.0511   9.2786  10.4778  19.8375  21.7905

     occupation numbers 
     1.0000   1.0000   0.0000   0.0000   0.0000   0.0000

          k =-0.3250-1.2750 0.3250 (    85 PWs)   bands (ev):

     2.7373   4.7975  11.7408  14.4567  16.2227  23.0978

     occupation numbers 
     1.0000   1.0000   0.0000   0.0000   0.0000   0.0000

          k =-0.3750-1.2250 0.2750 (    84 PWs)   bands (ev):

     3.3975   4.6333  10.8069  13.4113  16.9654  22.9607

     occupation numbers 
     1.0000   1.0000   0.0000   0.0000   0.0000   0.0000

          k =-0.4250-1.1750 0.2250 (    86 PWs)   bands (ev):

     4.1672   4.5870   9.9838  11.9235  18.3314  22.3730

     occupation numbers 
     1.0000   1.0000   0.0000   0.0000   0.0000   0.0000

          k =-0.3250-1.1750 0.3250 (    87 PWs)   bands (ev):

     4.0038   4.4265   9.8284  14.1260  15.8842  24.2710

     occupation numbers 
     1.0000   1.0000   0.0000   0.0000   0.0000   0.0000

          k =-0.3750-1.1250 0.2750 (    85 PWs)   bands (ev):

     4.3404   4.7285   8.9768  13.1469  16.7070  24.0250

     occupation numbers 
     1.0000   1.0000   0.0000   0.0000   0.0000   0.0000

          k =-0.3250-1.0750 0.3250 (    86 PWs)   bands (ev):

     4.2192   5.3702   8.1059  13.9427  15.6971  24.5031

     occupation numbers 
     1.0000   1.0000   0.0000   0.0000   0.0000   0.0000

          k =-0.3750 0.3750 0.3750 (    77 PWs)   bands (ev):

     0.1087   6.3114  17.2644  17.2644  19.2714  19.2714

     occupation numbers 
     1.0000   1.0014   0.0000   0.0000   0.0000   0.0000

          k =-0.4250 0.4250 0.3250 (    81 PWs)   bands (ev):

     0.4850   5.8603  15.9499  17.7960  18.6621  19.3948

     occupation numbers 
     1.0000   1.0000   0.0000   0.0000   0.0000   0.0000

          k =-0.4750 0.4750 0.2750 (    80 PWs)   bands (ev):

     0.9913   5.5340  14.2990  16.9356  18.7568  19.6897

     occupation numbers 
     1.0000   1.0000   0.0000   0.0000   0.0000   0.0000

          k = 0.4750-0.4750 1.2250 (    81 PWs)   bands (ev):

     1.6190   5.3257  12.6260  16.0323  17.9204  20.9889

     occupation numbers 
     1.0000   1.0000   0.0000   0.0000   0.0000   0.0000

          k = 0.4250-0.4250 1.1750 (    87 PWs)   bands (ev):

     2.3646   5.2293  11.0068  15.2265  17.0911  22.4046

     occupation numbers 
     1.0000   1.0000   0.0000   0.0000   0.0000   0.0000

          k = 0.3750-0.3750 1.1250 (    87 PWs)   bands (ev):

     3.2339   5.2517   9.4922  14.5294  16.3455  23.9491

     occupation numbers 
     1.0000   1.0000   0.0000   0.0000   0.0000   0.0000

          k =-0.3750 0.4750 0.3750 (    81 PWs)   bands (ev):

     0.8227   5.3741  16.4393  17.2583  17.9172  19.8678

     occupation numbers 
     1.0000   1.0000   0.0000   0.0000   0.0000   0.0000

          k =-0.4250 0.5250 0.3250 (    83 PWs)   bands (ev):

     1.2829   5.0040  15.2297  16.3527  18.4960  19.7190

     occupation numbers 
     1.0000   1.0000   0.0000   0.0000   0.0000   0.0000

          k = 0.5250-0.4250 1.2750 (    83 PWs)   bands (ev):

     1.8692   4.7567  13.5961  15.4033  18.8583  19.8425

     occupation numbers 
     1.0000   1.0000   0.0000   0.0000   0.0000   0.0000

          k = 0.4750-0.3750 1.2250 (    83 PWs)   bands (ev):

     2.5770   4.6308  11.9718  14.5455  18.1138  21.1575

     occupation numbers 
     1.0000   1.0000   0.0000   0.0000   0.0000   0.0000

          k = 0.4250-0.3250 1.1750 (    85 PWs)   bands (ev):

     3.4024   4.6198  10.4232  13.7893  17.3651  22.6285

     occupation numbers 
     1.0000   1.0000   0.0000   0.0000   0.0000   0.0000

          k =-0.3750 0.5750 0.3750 (    83 PWs)   bands (ev):

     1.7017   4.5965  15.3250  15.7436  17.4469  20.6504

     occupation numbers 
     1.0000   1.0000   0.0000   0.0000   0.0000   0.0000

          k = 0.5750-0.3750 1.3250 (    82 PWs)   bands (ev):

     2.2454   4.3104  14.3250  14.6128  18.0902  20.5050

     occupation numbers 
     1.0000   1.0000   0.0000   0.0000   0.0000   0.0000

          k = 0.5250-0.3250 1.2750 (    84 PWs)   bands (ev):

     2.9064   4.1428  13.0175  13.4274  19.2077  19.9637

     occupation numbers 
     1.0000   1.0000   0.0000   0.0000   0.0000   0.0000

          k = 0.4750-0.2750 1.2250 (    84 PWs)   bands (ev):

     3.6892   4.0971  11.4612  12.6199  18.9804  20.8940

     occupation numbers 
     1.0000   1.0000   0.0000   0.0000   0.0000   0.0000

          k =-0.3750-1.3250 0.3750 (    83 PWs)   bands (ev):

     2.7419   3.9816  13.2768  15.1919  16.9884  21.5985

     occupation numbers 
     1.0000   1.0000   0.0000   0.0000   0.0000   0.0000

          k =-0.4250-1.2750 0.3250 (    82 PWs)   bands (ev):

     3.3615   3.7769  12.3195  14.1298  17.6814  21.4905

     occupation numbers 
     1.0000   1.0000   0.0000   0.0000   0.0000   0.0000

          k =-0.3750-1.2250 0.3750 (    84 PWs)   bands (ev):

     3.5288   3.9313  11.3155  14.7871  16.6053  22.7004

     occupation numbers 
     1.0000   1.0000   0.0000   0.0000   0.0000   0.0000

          k =-0.4250 0.4250 0.4250 (    77 PWs)   bands (ev):

     1.1223   4.8509  17.3816  17.3816  18.7158  18.7164

     occupation numbers 
     1.0000   1.0000   0.0000   0.0000   0.0000   0.0000

          k =-0.4750 0.4750 0.3750 (    81 PWs)   bands (ev):

     1.5371   4.4363  16.1366  17.3725  18.7194  18.8352

     occupation numbers 
     1.0000   1.0000   0.0000   0.0000   0.0000   0.0000

          k = 0.4750-0.4750 1.3250 (    81 PWs)   bands (ev):

     2.0805   4.1481  14.5288  16.4345  18.2072  19.8951

     occupation numbers 
     1.0000   1.0000   0.0000   0.0000   0.0000   0.0000

          k = 0.4250-0.4250 1.2750 (    83 PWs)   bands (ev):

     2.7434   3.9789  12.8899  15.5582  17.3987  21.2370

     occupation numbers 
     1.0000   1.0000   0.0000   0.0000   0.0000   0.0000

          k =-0.4250 0.5250 0.4250 (    81 PWs)   bands (ev):

     1.9136   3.9856  16.6547  16.8211  18.0643  19.3610

     occupation numbers 
     1.0000   1.0000   0.0000   0.0000   0.0000   0.0000

          k = 0.5250-0.4250 1.3750 (    83 PWs)   bands (ev):

     2.4110   3.6535  15.4938  15.8708  18.6962  19.2932

     occupation numbers 
     1.0000   1.0000   0.0000   0.0000   0.0000   0.0000

          k = 0.4750-0.3750 1.3250 (    81 PWs)   bands (ev):

     3.0356   3.4475  13.9051  14.9531  18.4333  20.1098

     occupation numbers 
     1.0000   1.0000   0.0000   0.0000   0.0000   0.0000

          k =-0.4250-1.3750 0.4250 (    80 PWs)   bands (ev):

     2.8711   3.2853  14.8738  16.0358  17.7739  20.2177

     occupation numbers 
     1.0000   1.0000   0.0000   0.0000   0.0000   0.0000

          k =-0.4750 0.4750 0.4750 (    77 PWs)   bands (ev):

     2.2525   3.4975  17.5354  17.5354  18.3419  18.3419

     occupation numbers 
     1.0000   1.0000   0.0000   0.0000   0.0000   0.0000

          k = 0.4750-0.4750 1.4250 (    80 PWs)   bands (ev):

     2.7056   3.1208  16.4308  16.9710  18.3880  18.9721

     occupation numbers 
     1.0000   1.0000   0.0000   0.0000   0.0000   0.0000

     the Fermi energy is     7.1332 ev

!    total energy              =      -4.17896491 Ry
     estimated scf accuracy    <       0.00000040 Ry
     smearing contrib. (-TS)   =       0.00001131 Ry
     internal energy E=F+TS    =      -4.17897622 Ry

     The total energy is F=E-TS. E is the sum of the following terms:
     one-electron contribution =       2.67977722 Ry
     hartree contribution      =       0.00855855 Ry
     xc contribution           =      -1.57708647 Ry
     ewald contribution        =      -5.29022553 Ry

     convergence has been achieved in   3 iterations

     Writing output data file ./tmp/Al_exc1.save/

     init_run     :      3.23s CPU      0.32s WALL (       1 calls)
     electrons    :     36.50s CPU      3.30s WALL (       1 calls)

     Called by init_run:
     wfcinit      :      3.19s CPU      0.27s WALL (       1 calls)
     wfcinit:atom :      0.15s CPU      0.01s WALL (     770 calls)
     wfcinit:wfcr :      2.73s CPU      0.23s WALL (     770 calls)
     potinit      :      0.00s CPU      0.00s WALL (       1 calls)
     hinit0       :      0.01s CPU      0.01s WALL (       1 calls)

     Called by electrons:
     c_bands      :     35.68s CPU      3.02s WALL (       4 calls)
     sum_band     :      0.82s CPU      0.28s WALL (       4 calls)
     v_of_rho     :      0.00s CPU      0.00s WALL (       4 calls)
     v_h          :      0.00s CPU      0.00s WALL (       4 calls)
     v_xc         :      0.00s CPU      0.00s WALL (       4 calls)
     mix_rho      :      0.00s CPU      0.00s WALL (       4 calls)

     Called by c_bands:
     init_us_2    :      0.72s CPU      0.08s WALL (    6930 calls)
     cegterg      :     34.63s CPU      2.93s WALL (    3080 calls)

     Called by sum_band:
     sum_band:wei :      0.17s CPU      0.01s WALL (       4 calls)
     sum_band:loo :      0.65s CPU      0.27s WALL (       4 calls)
     sum_band:buf :      0.00s CPU      0.00s WALL (    3080 calls)
     sum_band:ini :      0.11s CPU      0.03s WALL (    3080 calls)

     Called by *egterg:
     cdiaghg      :     10.17s CPU      0.87s WALL (   10117 calls)
     cegterg:over :      0.43s CPU      0.03s WALL (    7807 calls)
     cegterg:upda :      0.44s CPU      0.03s WALL (    7807 calls)
     cegterg:last :      0.33s CPU      0.03s WALL (    5900 calls)
     h_psi        :     24.08s CPU      2.04s WALL (   11657 calls)
     g_psi        :      0.20s CPU      0.02s WALL (    7807 calls)

     Called by h_psi:
     h_psi:calbec :      0.56s CPU      0.05s WALL (   11657 calls)
     vloc_psi     :     22.06s CPU      1.88s WALL (   11657 calls)
     add_vuspsi   :      0.50s CPU      0.03s WALL (   11657 calls)

     General routines
     calbec       :      0.28s CPU      0.03s WALL (   11657 calls)
     fft          :      0.00s CPU      0.00s WALL (      12 calls)
     ffts         :      0.00s CPU      0.00s WALL (       4 calls)
     fftw         :     16.98s CPU      1.59s WALL (  125468 calls)


     PWSCF        :     39.84s CPU      3.75s WALL


   This run was terminated on:  12:34:17  13Mar2023            

=------------------------------------------------------------------------------=
   JOB DONE.
=------------------------------------------------------------------------------=
