
     Program PWSCF v.6.6 starts on  6Mar2023 at 13:14:38 

     This program is part of the open-source Quantum ESPRESSO suite
     for quantum simulation of materials; please cite
         "P. Giannozzi et al., J. Phys.:Condens. Matter 21 395502 (2009);
         "P. Giannozzi et al., J. Phys.:Condens. Matter 29 465901 (2017);
          URL http://www.quantum-espresso.org", 
     in publications or presentations arising from this work. More details at
     http://www.quantum-espresso.org/quote

     Serial version
     Fft bands division:     nmany     =       1
     Waiting for input...
     Reading input from standard input

     Current dimensions of program PWSCF are:
     Max number of different atomic species (ntypx) = 10
     Max number of k-points (npk) =  40000
     Max angular momentum in pseudopotentials (lmaxx) =  3

     G-vector sticks info
     --------------------
     sticks:   dense  smooth     PW     G-vecs:    dense   smooth      PW
     Sum          91      91     43                  609      609     181



     bravais-lattice index     =            2
     lattice parameter (alat)  =       7.6500  a.u.
     unit-cell volume          =     111.9243 (a.u.)^3
     number of atoms/cell      =            1
     number of atomic types    =            1
     number of electrons       =         3.00
     number of Kohn-Sham states=            6
     kinetic-energy cutoff     =      12.0000  Ry
     charge density cutoff     =      48.0000  Ry
     convergence threshold     =      1.0E-06
     mixing beta               =       0.7000
     number of iterations used =            8  plain     mixing
     Exchange-correlation= SLA PZ NOGX NOGC
                           (   1   1   0   0   0   0   0)

     celldm(1)=   7.650000  celldm(2)=   0.000000  celldm(3)=   0.000000
     celldm(4)=   0.000000  celldm(5)=   0.000000  celldm(6)=   0.000000

     crystal axes: (cart. coord. in units of alat)
               a(1) = (  -0.500000   0.000000   0.500000 )  
               a(2) = (   0.000000   0.500000   0.500000 )  
               a(3) = (  -0.500000   0.500000   0.000000 )  

     reciprocal axes: (cart. coord. in units 2 pi/alat)
               b(1) = ( -1.000000 -1.000000  1.000000 )  
               b(2) = (  1.000000  1.000000  1.000000 )  
               b(3) = ( -1.000000  1.000000 -1.000000 )  


     PseudoPot. # 1 for Al read from file:
     ../pseudo/Al.pz-vbc.UPF
     MD5 check sum: f06ceae8da0fe5c02c98e3688433298c
     Pseudo is Norm-conserving, Zval =  3.0
     Generated by new atomic code, or converted to UPF format
     Using radial grid of  171 points,  2 beta functions with: 
                l(1) =   0
                l(2) =   1

     atomic species   valence    mass     pseudopotential
        Al             3.00    26.98000     Al( 1.00)

     48 Sym. Ops., with inversion, found


                                    s                        frac. trans.

      isym =  1     identity                                     

 cryst.   s( 1) = (     1          0          0      )
                  (     0          1          0      )
                  (     0          0          1      )

 cart.    s( 1) = (  1.0000000  0.0000000  0.0000000 )
                  (  0.0000000  1.0000000  0.0000000 )
                  (  0.0000000  0.0000000  1.0000000 )


      isym =  2     180 deg rotation - cart. axis [0,0,1]        

 cryst.   s( 2) = (     0          1         -1      )
                  (     1          0         -1      )
                  (     0          0         -1      )

 cart.    s( 2) = ( -1.0000000  0.0000000  0.0000000 )
                  (  0.0000000 -1.0000000  0.0000000 )
                  (  0.0000000  0.0000000  1.0000000 )


      isym =  3     180 deg rotation - cart. axis [0,1,0]        

 cryst.   s( 3) = (    -1          0          0      )
                  (    -1          0          1      )
                  (    -1          1          0      )

 cart.    s( 3) = ( -1.0000000  0.0000000  0.0000000 )
                  (  0.0000000  1.0000000  0.0000000 )
                  (  0.0000000  0.0000000 -1.0000000 )


      isym =  4     180 deg rotation - cart. axis [1,0,0]        

 cryst.   s( 4) = (     0         -1          1      )
                  (     0         -1          0      )
                  (     1         -1          0      )

 cart.    s( 4) = (  1.0000000  0.0000000  0.0000000 )
                  (  0.0000000 -1.0000000  0.0000000 )
                  (  0.0000000  0.0000000 -1.0000000 )


      isym =  5     180 deg rotation - cart. axis [1,1,0]        

 cryst.   s( 5) = (     0         -1          0      )
                  (    -1          0          0      )
                  (     0          0         -1      )

 cart.    s( 5) = (  0.0000000  1.0000000  0.0000000 )
                  (  1.0000000  0.0000000  0.0000000 )
                  (  0.0000000  0.0000000 -1.0000000 )


      isym =  6     180 deg rotation - cart. axis [1,-1,0]       

 cryst.   s( 6) = (    -1          0          1      )
                  (     0         -1          1      )
                  (     0          0          1      )

 cart.    s( 6) = (  0.0000000 -1.0000000  0.0000000 )
                  ( -1.0000000  0.0000000  0.0000000 )
                  (  0.0000000  0.0000000 -1.0000000 )


      isym =  7      90 deg rotation - cart. axis [0,0,-1]       

 cryst.   s( 7) = (     0          1          0      )
                  (     0          1         -1      )
                  (    -1          1          0      )

 cart.    s( 7) = (  0.0000000  1.0000000  0.0000000 )
                  ( -1.0000000  0.0000000  0.0000000 )
                  (  0.0000000  0.0000000  1.0000000 )


      isym =  8      90 deg rotation - cart. axis [0,0,1]        

 cryst.   s( 8) = (     1          0         -1      )
                  (     1          0          0      )
                  (     1         -1          0      )

 cart.    s( 8) = (  0.0000000 -1.0000000  0.0000000 )
                  (  1.0000000  0.0000000  0.0000000 )
                  (  0.0000000  0.0000000  1.0000000 )


      isym =  9     180 deg rotation - cart. axis [1,0,1]        

 cryst.   s( 9) = (    -1          0          0      )
                  (     0          0         -1      )
                  (     0         -1          0      )

 cart.    s( 9) = (  0.0000000  0.0000000  1.0000000 )
                  (  0.0000000 -1.0000000  0.0000000 )
                  (  1.0000000  0.0000000  0.0000000 )


      isym = 10     180 deg rotation - cart. axis [-1,0,1]       

 cryst.   s(10) = (     1          0          0      )
                  (     1         -1          0      )
                  (     1          0         -1      )

 cart.    s(10) = (  0.0000000  0.0000000 -1.0000000 )
                  (  0.0000000 -1.0000000  0.0000000 )
                  ( -1.0000000  0.0000000  0.0000000 )


      isym = 11      90 deg rotation - cart. axis [0,1,0]        

 cryst.   s(11) = (     0          1         -1      )
                  (    -1          1          0      )
                  (     0          1          0      )

 cart.    s(11) = (  0.0000000  0.0000000  1.0000000 )
                  (  0.0000000  1.0000000  0.0000000 )
                  ( -1.0000000  0.0000000  0.0000000 )


      isym = 12      90 deg rotation - cart. axis [0,-1,0]       

 cryst.   s(12) = (     0         -1          1      )
                  (     0          0          1      )
                  (    -1          0          1      )

 cart.    s(12) = (  0.0000000  0.0000000 -1.0000000 )
                  (  0.0000000  1.0000000  0.0000000 )
                  (  1.0000000  0.0000000  0.0000000 )


      isym = 13     180 deg rotation - cart. axis [0,1,1]        

 cryst.   s(13) = (    -1          1          0      )
                  (     0          1          0      )
                  (     0          1         -1      )

 cart.    s(13) = ( -1.0000000  0.0000000  0.0000000 )
                  (  0.0000000  0.0000000  1.0000000 )
                  (  0.0000000  1.0000000  0.0000000 )


      isym = 14     180 deg rotation - cart. axis [0,1,-1]       

 cryst.   s(14) = (     0          0         -1      )
                  (     0         -1          0      )
                  (    -1          0          0      )

 cart.    s(14) = ( -1.0000000  0.0000000  0.0000000 )
                  (  0.0000000  0.0000000 -1.0000000 )
                  (  0.0000000 -1.0000000  0.0000000 )


      isym = 15      90 deg rotation - cart. axis [-1,0,0]       

 cryst.   s(15) = (     0          0          1      )
                  (    -1          0          1      )
                  (     0         -1          1      )

 cart.    s(15) = (  1.0000000  0.0000000  0.0000000 )
                  (  0.0000000  0.0000000  1.0000000 )
                  (  0.0000000 -1.0000000  0.0000000 )


      isym = 16      90 deg rotation - cart. axis [1,0,0]        

 cryst.   s(16) = (     1         -1          0      )
                  (     1          0         -1      )
                  (     1          0          0      )

 cart.    s(16) = (  1.0000000  0.0000000  0.0000000 )
                  (  0.0000000  0.0000000 -1.0000000 )
                  (  0.0000000  1.0000000  0.0000000 )


      isym = 17     120 deg rotation - cart. axis [-1,-1,-1]     

 cryst.   s(17) = (    -1          0          1      )
                  (    -1          1          0      )
                  (    -1          0          0      )

 cart.    s(17) = (  0.0000000  1.0000000  0.0000000 )
                  (  0.0000000  0.0000000  1.0000000 )
                  (  1.0000000  0.0000000  0.0000000 )


      isym = 18     120 deg rotation - cart. axis [-1,1,1]       

 cryst.   s(18) = (     0          1          0      )
                  (     0          0          1      )
                  (     1          0          0      )

 cart.    s(18) = (  0.0000000 -1.0000000  0.0000000 )
                  (  0.0000000  0.0000000  1.0000000 )
                  ( -1.0000000  0.0000000  0.0000000 )


      isym = 19     120 deg rotation - cart. axis [1,1,-1]       

 cryst.   s(19) = (     1          0         -1      )
                  (     0          0         -1      )
                  (     0          1         -1      )

 cart.    s(19) = (  0.0000000  1.0000000  0.0000000 )
                  (  0.0000000  0.0000000 -1.0000000 )
                  ( -1.0000000  0.0000000  0.0000000 )


      isym = 20     120 deg rotation - cart. axis [1,-1,1]       

 cryst.   s(20) = (     0         -1          0      )
                  (     1         -1          0      )
                  (     0         -1          1      )

 cart.    s(20) = (  0.0000000 -1.0000000  0.0000000 )
                  (  0.0000000  0.0000000 -1.0000000 )
                  (  1.0000000  0.0000000  0.0000000 )


      isym = 21     120 deg rotation - cart. axis [1,1,1]        

 cryst.   s(21) = (     0          0         -1      )
                  (     0          1         -1      )
                  (     1          0         -1      )

 cart.    s(21) = (  0.0000000  0.0000000  1.0000000 )
                  (  1.0000000  0.0000000  0.0000000 )
                  (  0.0000000  1.0000000  0.0000000 )


      isym = 22     120 deg rotation - cart. axis [-1,1,-1]      

 cryst.   s(22) = (    -1          1          0      )
                  (    -1          0          0      )
                  (    -1          0          1      )

 cart.    s(22) = (  0.0000000  0.0000000  1.0000000 )
                  ( -1.0000000  0.0000000  0.0000000 )
                  (  0.0000000 -1.0000000  0.0000000 )


      isym = 23     120 deg rotation - cart. axis [1,-1,-1]      

 cryst.   s(23) = (     0          0          1      )
                  (     1          0          0      )
                  (     0          1          0      )

 cart.    s(23) = (  0.0000000  0.0000000 -1.0000000 )
                  ( -1.0000000  0.0000000  0.0000000 )
                  (  0.0000000  1.0000000  0.0000000 )


      isym = 24     120 deg rotation - cart. axis [-1,-1,1]      

 cryst.   s(24) = (     1         -1          0      )
                  (     0         -1          1      )
                  (     0         -1          0      )

 cart.    s(24) = (  0.0000000  0.0000000 -1.0000000 )
                  (  1.0000000  0.0000000  0.0000000 )
                  (  0.0000000 -1.0000000  0.0000000 )


      isym = 25     inversion                                    

 cryst.   s(25) = (    -1          0          0      )
                  (     0         -1          0      )
                  (     0          0         -1      )

 cart.    s(25) = ( -1.0000000  0.0000000  0.0000000 )
                  (  0.0000000 -1.0000000  0.0000000 )
                  (  0.0000000  0.0000000 -1.0000000 )


      isym = 26     inv. 180 deg rotation - cart. axis [0,0,1]   

 cryst.   s(26) = (     0         -1          1      )
                  (    -1          0          1      )
                  (     0          0          1      )

 cart.    s(26) = (  1.0000000  0.0000000  0.0000000 )
                  (  0.0000000  1.0000000  0.0000000 )
                  (  0.0000000  0.0000000 -1.0000000 )


      isym = 27     inv. 180 deg rotation - cart. axis [0,1,0]   

 cryst.   s(27) = (     1          0          0      )
                  (     1          0         -1      )
                  (     1         -1          0      )

 cart.    s(27) = (  1.0000000  0.0000000  0.0000000 )
                  (  0.0000000 -1.0000000  0.0000000 )
                  (  0.0000000  0.0000000  1.0000000 )


      isym = 28     inv. 180 deg rotation - cart. axis [1,0,0]   

 cryst.   s(28) = (     0          1         -1      )
                  (     0          1          0      )
                  (    -1          1          0      )

 cart.    s(28) = ( -1.0000000  0.0000000  0.0000000 )
                  (  0.0000000  1.0000000  0.0000000 )
                  (  0.0000000  0.0000000  1.0000000 )


      isym = 29     inv. 180 deg rotation - cart. axis [1,1,0]   

 cryst.   s(29) = (     0          1          0      )
                  (     1          0          0      )
                  (     0          0          1      )

 cart.    s(29) = (  0.0000000 -1.0000000  0.0000000 )
                  ( -1.0000000  0.0000000  0.0000000 )
                  (  0.0000000  0.0000000  1.0000000 )


      isym = 30     inv. 180 deg rotation - cart. axis [1,-1,0]  

 cryst.   s(30) = (     1          0         -1      )
                  (     0          1         -1      )
                  (     0          0         -1      )

 cart.    s(30) = (  0.0000000  1.0000000  0.0000000 )
                  (  1.0000000  0.0000000  0.0000000 )
                  (  0.0000000  0.0000000  1.0000000 )


      isym = 31     inv.  90 deg rotation - cart. axis [0,0,-1]  

 cryst.   s(31) = (     0         -1          0      )
                  (     0         -1          1      )
                  (     1         -1          0      )

 cart.    s(31) = (  0.0000000 -1.0000000  0.0000000 )
                  (  1.0000000  0.0000000  0.0000000 )
                  (  0.0000000  0.0000000 -1.0000000 )


      isym = 32     inv.  90 deg rotation - cart. axis [0,0,1]   

 cryst.   s(32) = (    -1          0          1      )
                  (    -1          0          0      )
                  (    -1          1          0      )

 cart.    s(32) = (  0.0000000  1.0000000  0.0000000 )
                  ( -1.0000000  0.0000000  0.0000000 )
                  (  0.0000000  0.0000000 -1.0000000 )


      isym = 33     inv. 180 deg rotation - cart. axis [1,0,1]   

 cryst.   s(33) = (     1          0          0      )
                  (     0          0          1      )
                  (     0          1          0      )

 cart.    s(33) = (  0.0000000  0.0000000 -1.0000000 )
                  (  0.0000000  1.0000000  0.0000000 )
                  ( -1.0000000  0.0000000  0.0000000 )


      isym = 34     inv. 180 deg rotation - cart. axis [-1,0,1]  

 cryst.   s(34) = (    -1          0          0      )
                  (    -1          1          0      )
                  (    -1          0          1      )

 cart.    s(34) = (  0.0000000  0.0000000  1.0000000 )
                  (  0.0000000  1.0000000  0.0000000 )
                  (  1.0000000  0.0000000  0.0000000 )


      isym = 35     inv.  90 deg rotation - cart. axis [0,1,0]   

 cryst.   s(35) = (     0         -1          1      )
                  (     1         -1          0      )
                  (     0         -1          0      )

 cart.    s(35) = (  0.0000000  0.0000000 -1.0000000 )
                  (  0.0000000 -1.0000000  0.0000000 )
                  (  1.0000000  0.0000000  0.0000000 )


      isym = 36     inv.  90 deg rotation - cart. axis [0,-1,0]  

 cryst.   s(36) = (     0          1         -1      )
                  (     0          0         -1      )
                  (     1          0         -1      )

 cart.    s(36) = (  0.0000000  0.0000000  1.0000000 )
                  (  0.0000000 -1.0000000  0.0000000 )
                  ( -1.0000000  0.0000000  0.0000000 )


      isym = 37     inv. 180 deg rotation - cart. axis [0,1,1]   

 cryst.   s(37) = (     1         -1          0      )
                  (     0         -1          0      )
                  (     0         -1          1      )

 cart.    s(37) = (  1.0000000  0.0000000  0.0000000 )
                  (  0.0000000  0.0000000 -1.0000000 )
                  (  0.0000000 -1.0000000  0.0000000 )


      isym = 38     inv. 180 deg rotation - cart. axis [0,1,-1]  

 cryst.   s(38) = (     0          0          1      )
                  (     0          1          0      )
                  (     1          0          0      )

 cart.    s(38) = (  1.0000000  0.0000000  0.0000000 )
                  (  0.0000000  0.0000000  1.0000000 )
                  (  0.0000000  1.0000000  0.0000000 )


      isym = 39     inv.  90 deg rotation - cart. axis [-1,0,0]  

 cryst.   s(39) = (     0          0         -1      )
                  (     1          0         -1      )
                  (     0          1         -1      )

 cart.    s(39) = ( -1.0000000  0.0000000  0.0000000 )
                  (  0.0000000  0.0000000 -1.0000000 )
                  (  0.0000000  1.0000000  0.0000000 )


      isym = 40     inv.  90 deg rotation - cart. axis [1,0,0]   

 cryst.   s(40) = (    -1          1          0      )
                  (    -1          0          1      )
                  (    -1          0          0      )

 cart.    s(40) = ( -1.0000000  0.0000000  0.0000000 )
                  (  0.0000000  0.0000000  1.0000000 )
                  (  0.0000000 -1.0000000  0.0000000 )


      isym = 41     inv. 120 deg rotation - cart. axis [-1,-1,-1]

 cryst.   s(41) = (     1          0         -1      )
                  (     1         -1          0      )
                  (     1          0          0      )

 cart.    s(41) = (  0.0000000 -1.0000000  0.0000000 )
                  (  0.0000000  0.0000000 -1.0000000 )
                  ( -1.0000000  0.0000000  0.0000000 )


      isym = 42     inv. 120 deg rotation - cart. axis [-1,1,1]  

 cryst.   s(42) = (     0         -1          0      )
                  (     0          0         -1      )
                  (    -1          0          0      )

 cart.    s(42) = (  0.0000000  1.0000000  0.0000000 )
                  (  0.0000000  0.0000000 -1.0000000 )
                  (  1.0000000  0.0000000  0.0000000 )


      isym = 43     inv. 120 deg rotation - cart. axis [1,1,-1]  

 cryst.   s(43) = (    -1          0          1      )
                  (     0          0          1      )
                  (     0         -1          1      )

 cart.    s(43) = (  0.0000000 -1.0000000  0.0000000 )
                  (  0.0000000  0.0000000  1.0000000 )
                  (  1.0000000  0.0000000  0.0000000 )


      isym = 44     inv. 120 deg rotation - cart. axis [1,-1,1]  

 cryst.   s(44) = (     0          1          0      )
                  (    -1          1          0      )
                  (     0          1         -1      )

 cart.    s(44) = (  0.0000000  1.0000000  0.0000000 )
                  (  0.0000000  0.0000000  1.0000000 )
                  ( -1.0000000  0.0000000  0.0000000 )


      isym = 45     inv. 120 deg rotation - cart. axis [1,1,1]   

 cryst.   s(45) = (     0          0          1      )
                  (     0         -1          1      )
                  (    -1          0          1      )

 cart.    s(45) = (  0.0000000  0.0000000 -1.0000000 )
                  ( -1.0000000  0.0000000  0.0000000 )
                  (  0.0000000 -1.0000000  0.0000000 )


      isym = 46     inv. 120 deg rotation - cart. axis [-1,1,-1] 

 cryst.   s(46) = (     1         -1          0      )
                  (     1          0          0      )
                  (     1          0         -1      )

 cart.    s(46) = (  0.0000000  0.0000000 -1.0000000 )
                  (  1.0000000  0.0000000  0.0000000 )
                  (  0.0000000  1.0000000  0.0000000 )


      isym = 47     inv. 120 deg rotation - cart. axis [1,-1,-1] 

 cryst.   s(47) = (     0          0         -1      )
                  (    -1          0          0      )
                  (     0         -1          0      )

 cart.    s(47) = (  0.0000000  0.0000000  1.0000000 )
                  (  1.0000000  0.0000000  0.0000000 )
                  (  0.0000000 -1.0000000  0.0000000 )


      isym = 48     inv. 120 deg rotation - cart. axis [-1,-1,1] 

 cryst.   s(48) = (    -1          1          0      )
                  (     0          1         -1      )
                  (     0          1          0      )

 cart.    s(48) = (  0.0000000  0.0000000  1.0000000 )
                  ( -1.0000000  0.0000000  0.0000000 )
                  (  0.0000000  1.0000000  0.0000000 )


     point group O_h (m-3m) 
     there are 10 classes
     the character table:

       E     8C3   3C2   6C4   6C2'  i     8S6   3s_h  6S4   6s_d 
A_1g   1.00  1.00  1.00  1.00  1.00  1.00  1.00  1.00  1.00  1.00
A_2g   1.00  1.00  1.00 -1.00 -1.00  1.00  1.00  1.00 -1.00 -1.00
E_g    2.00 -1.00  2.00  0.00  0.00  2.00 -1.00  2.00  0.00  0.00
T_1g   3.00  0.00 -1.00  1.00 -1.00  3.00  0.00 -1.00  1.00 -1.00
T_2g   3.00  0.00 -1.00 -1.00  1.00  3.00  0.00 -1.00 -1.00  1.00
A_1u   1.00  1.00  1.00  1.00  1.00 -1.00 -1.00 -1.00 -1.00 -1.00
A_2u   1.00  1.00  1.00 -1.00 -1.00 -1.00 -1.00 -1.00  1.00  1.00
E_u    2.00 -1.00  2.00  0.00  0.00 -2.00  1.00 -2.00  0.00  0.00
T_1u   3.00  0.00 -1.00  1.00 -1.00 -3.00  0.00  1.00 -1.00  1.00
T_2u   3.00  0.00 -1.00 -1.00  1.00 -3.00  0.00  1.00  1.00 -1.00

     the symmetry operations in each class and the name of the first element:

     E        1
          identity                                               
     8C3     17   19   20   18   24   21   22   23
          120 deg rotation - cart. axis [-1,-1,-1]               
     3C2      2    4    3
          180 deg rotation - cart. axis [0,0,1]                  
     6C4      7    8   15   16   12   11
           90 deg rotation - cart. axis [0,0,-1]                 
     6C2'     5    6   14   13   10    9
          180 deg rotation - cart. axis [1,1,0]                  
     i       25
          inversion                                              
     8S6     41   43   44   42   48   45   46   47
          inv. 120 deg rotation - cart. axis [-1,-1,-1]          
     3s_h    26   28   27
          inv. 180 deg rotation - cart. axis [0,0,1]             
     6S4     31   32   39   40   36   35
          inv.  90 deg rotation - cart. axis [0,0,-1]            
     6s_d    29   30   38   37   34   33
          inv. 180 deg rotation - cart. axis [1,1,0]             

   Cartesian axes

     site n.     atom                  positions (alat units)
         1           Al  tau(   1) = (   0.0000000   0.0000000   0.0000000  )

   Crystallographic axes

     site n.     atom                  positions (cryst. coord.)
         1           Al  tau(   1) = (  0.0000000  0.0000000  0.0000000  )

     number of k points=   182  Marzari-Vanderbilt smearing, width (Ry)=  0.1000
                       cart. coord. in units 2pi/alat
        k(    1) = (  -0.0416667   0.0416667   0.0416667), wk =   0.0023148
        k(    2) = (  -0.1250000   0.1250000  -0.0416667), wk =   0.0069444
        k(    3) = (  -0.2083333   0.2083333  -0.1250000), wk =   0.0069444
        k(    4) = (  -0.2916667   0.2916667  -0.2083333), wk =   0.0069444
        k(    5) = (  -0.3750000   0.3750000  -0.2916667), wk =   0.0069444
        k(    6) = (  -0.4583333   0.4583333  -0.3750000), wk =   0.0069444
        k(    7) = (   0.4583333  -0.4583333   0.5416667), wk =   0.0069444
        k(    8) = (   0.3750000  -0.3750000   0.4583333), wk =   0.0069444
        k(    9) = (   0.2916667  -0.2916667   0.3750000), wk =   0.0069444
        k(   10) = (   0.2083333  -0.2083333   0.2916667), wk =   0.0069444
        k(   11) = (   0.1250000  -0.1250000   0.2083333), wk =   0.0069444
        k(   12) = (   0.0416667  -0.0416667   0.1250000), wk =   0.0069444
        k(   13) = (  -0.0416667   0.2083333   0.0416667), wk =   0.0069444
        k(   14) = (  -0.1250000   0.2916667  -0.0416667), wk =   0.0138889
        k(   15) = (  -0.2083333   0.3750000  -0.1250000), wk =   0.0138889
        k(   16) = (  -0.2916667   0.4583333  -0.2083333), wk =   0.0138889
        k(   17) = (  -0.3750000   0.5416667  -0.2916667), wk =   0.0138889
        k(   18) = (   0.5416667  -0.3750000   0.6250000), wk =   0.0138889
        k(   19) = (   0.4583333  -0.2916667   0.5416667), wk =   0.0138889
        k(   20) = (   0.3750000  -0.2083333   0.4583333), wk =   0.0138889
        k(   21) = (   0.2916667  -0.1250000   0.3750000), wk =   0.0138889
        k(   22) = (   0.2083333  -0.0416667   0.2916667), wk =   0.0138889
        k(   23) = (   0.1250000   0.0416667   0.2083333), wk =   0.0138889
        k(   24) = (  -0.0416667   0.3750000   0.0416667), wk =   0.0069444
        k(   25) = (  -0.1250000   0.4583333  -0.0416667), wk =   0.0138889
        k(   26) = (  -0.2083333   0.5416667  -0.1250000), wk =   0.0138889
        k(   27) = (  -0.2916667   0.6250000  -0.2083333), wk =   0.0138889
        k(   28) = (   0.6250000  -0.2916667   0.7083333), wk =   0.0138889
        k(   29) = (   0.5416667  -0.2083333   0.6250000), wk =   0.0138889
        k(   30) = (   0.4583333  -0.1250000   0.5416667), wk =   0.0138889
        k(   31) = (   0.3750000  -0.0416667   0.4583333), wk =   0.0138889
        k(   32) = (   0.2916667   0.0416667   0.3750000), wk =   0.0138889
        k(   33) = (   0.2083333   0.1250000   0.2916667), wk =   0.0138889
        k(   34) = (  -0.0416667   0.5416667   0.0416667), wk =   0.0069444
        k(   35) = (  -0.1250000   0.6250000  -0.0416667), wk =   0.0138889
        k(   36) = (  -0.2083333   0.7083333  -0.1250000), wk =   0.0138889
        k(   37) = (   0.7083333  -0.2083333   0.7916667), wk =   0.0138889
        k(   38) = (   0.6250000  -0.1250000   0.7083333), wk =   0.0138889
        k(   39) = (   0.5416667  -0.0416667   0.6250000), wk =   0.0138889
        k(   40) = (   0.4583333   0.0416667   0.5416667), wk =   0.0138889
        k(   41) = (   0.3750000   0.1250000   0.4583333), wk =   0.0138889
        k(   42) = (   0.2916667   0.2083333   0.3750000), wk =   0.0138889
        k(   43) = (  -0.0416667   0.7083333   0.0416667), wk =   0.0069444
        k(   44) = (  -0.1250000   0.7916667  -0.0416667), wk =   0.0138889
        k(   45) = (   0.7916667  -0.1250000   0.8750000), wk =   0.0138889
        k(   46) = (   0.7083333  -0.0416667   0.7916667), wk =   0.0138889
        k(   47) = (   0.6250000   0.0416667   0.7083333), wk =   0.0138889
        k(   48) = (   0.5416667   0.1250000   0.6250000), wk =   0.0138889
        k(   49) = (   0.4583333   0.2083333   0.5416667), wk =   0.0138889
        k(   50) = (   0.3750000   0.2916667   0.4583333), wk =   0.0138889
        k(   51) = (  -0.0416667   0.8750000   0.0416667), wk =   0.0069444
        k(   52) = (   0.8750000  -0.0416667   0.9583333), wk =   0.0138889
        k(   53) = (   0.7916667   0.0416667   0.8750000), wk =   0.0138889
        k(   54) = (   0.7083333   0.1250000   0.7916667), wk =   0.0138889
        k(   55) = (   0.6250000   0.2083333   0.7083333), wk =   0.0138889
        k(   56) = (   0.5416667   0.2916667   0.6250000), wk =   0.0138889
        k(   57) = (   0.4583333   0.3750000   0.5416667), wk =   0.0138889
        k(   58) = (  -0.0416667  -0.9583333   0.0416667), wk =   0.0069444
        k(   59) = (  -0.1250000  -0.8750000  -0.0416667), wk =   0.0138889
        k(   60) = (  -0.2083333  -0.7916667  -0.1250000), wk =   0.0138889
        k(   61) = (  -0.2916667  -0.7083333  -0.2083333), wk =   0.0138889
        k(   62) = (  -0.3750000  -0.6250000  -0.2916667), wk =   0.0138889
        k(   63) = (  -0.0416667  -0.7916667   0.0416667), wk =   0.0069444
        k(   64) = (  -0.1250000  -0.7083333  -0.0416667), wk =   0.0138889
        k(   65) = (  -0.2083333  -0.6250000  -0.1250000), wk =   0.0138889
        k(   66) = (  -0.2916667  -0.5416667  -0.2083333), wk =   0.0138889
        k(   67) = (  -0.0416667  -0.6250000   0.0416667), wk =   0.0069444
        k(   68) = (  -0.1250000  -0.5416667  -0.0416667), wk =   0.0138889
        k(   69) = (  -0.2083333  -0.4583333  -0.1250000), wk =   0.0138889
        k(   70) = (  -0.0416667  -0.4583333   0.0416667), wk =   0.0069444
        k(   71) = (  -0.1250000  -0.3750000  -0.0416667), wk =   0.0138889
        k(   72) = (  -0.0416667  -0.2916667   0.0416667), wk =   0.0069444
        k(   73) = (  -0.1250000   0.1250000   0.1250000), wk =   0.0023148
        k(   74) = (  -0.2083333   0.2083333   0.0416667), wk =   0.0069444
        k(   75) = (  -0.2916667   0.2916667  -0.0416667), wk =   0.0069444
        k(   76) = (  -0.3750000   0.3750000  -0.1250000), wk =   0.0069444
        k(   77) = (  -0.4583333   0.4583333  -0.2083333), wk =   0.0069444
        k(   78) = (   0.4583333  -0.4583333   0.7083333), wk =   0.0069444
        k(   79) = (   0.3750000  -0.3750000   0.6250000), wk =   0.0069444
        k(   80) = (   0.2916667  -0.2916667   0.5416667), wk =   0.0069444
        k(   81) = (   0.2083333  -0.2083333   0.4583333), wk =   0.0069444
        k(   82) = (   0.1250000  -0.1250000   0.3750000), wk =   0.0069444
        k(   83) = (  -0.1250000   0.2916667   0.1250000), wk =   0.0069444
        k(   84) = (  -0.2083333   0.3750000   0.0416667), wk =   0.0138889
        k(   85) = (  -0.2916667   0.4583333  -0.0416667), wk =   0.0138889
        k(   86) = (  -0.3750000   0.5416667  -0.1250000), wk =   0.0138889
        k(   87) = (   0.5416667  -0.3750000   0.7916667), wk =   0.0138889
        k(   88) = (   0.4583333  -0.2916667   0.7083333), wk =   0.0138889
        k(   89) = (   0.3750000  -0.2083333   0.6250000), wk =   0.0138889
        k(   90) = (   0.2916667  -0.1250000   0.5416667), wk =   0.0138889
        k(   91) = (   0.2083333  -0.0416667   0.4583333), wk =   0.0138889
        k(   92) = (  -0.1250000   0.4583333   0.1250000), wk =   0.0069444
        k(   93) = (  -0.2083333   0.5416667   0.0416667), wk =   0.0138889
        k(   94) = (  -0.2916667   0.6250000  -0.0416667), wk =   0.0138889
        k(   95) = (   0.6250000  -0.2916667   0.8750000), wk =   0.0138889
        k(   96) = (   0.5416667  -0.2083333   0.7916667), wk =   0.0138889
        k(   97) = (   0.4583333  -0.1250000   0.7083333), wk =   0.0138889
        k(   98) = (   0.3750000  -0.0416667   0.6250000), wk =   0.0138889
        k(   99) = (   0.2916667   0.0416667   0.5416667), wk =   0.0138889
        k(  100) = (  -0.1250000   0.6250000   0.1250000), wk =   0.0069444
        k(  101) = (  -0.2083333   0.7083333   0.0416667), wk =   0.0138889
        k(  102) = (   0.7083333  -0.2083333   0.9583333), wk =   0.0138889
        k(  103) = (   0.6250000  -0.1250000   0.8750000), wk =   0.0138889
        k(  104) = (   0.5416667  -0.0416667   0.7916667), wk =   0.0138889
        k(  105) = (   0.4583333   0.0416667   0.7083333), wk =   0.0138889
        k(  106) = (   0.3750000   0.1250000   0.6250000), wk =   0.0138889
        k(  107) = (  -0.1250000   0.7916667   0.1250000), wk =   0.0069444
        k(  108) = (   0.7916667  -0.1250000   1.0416667), wk =   0.0138889
        k(  109) = (   0.7083333  -0.0416667   0.9583333), wk =   0.0138889
        k(  110) = (   0.6250000   0.0416667   0.8750000), wk =   0.0138889
        k(  111) = (   0.5416667   0.1250000   0.7916667), wk =   0.0138889
        k(  112) = (   0.4583333   0.2083333   0.7083333), wk =   0.0138889
        k(  113) = (  -0.1250000  -1.0416667   0.1250000), wk =   0.0069444
        k(  114) = (  -0.2083333  -0.9583333   0.0416667), wk =   0.0138889
        k(  115) = (  -0.2916667  -0.8750000  -0.0416667), wk =   0.0138889
        k(  116) = (  -0.3750000  -0.7916667  -0.1250000), wk =   0.0138889
        k(  117) = (  -0.1250000  -0.8750000   0.1250000), wk =   0.0069444
        k(  118) = (  -0.2083333  -0.7916667   0.0416667), wk =   0.0138889
        k(  119) = (  -0.2916667  -0.7083333  -0.0416667), wk =   0.0138889
        k(  120) = (  -0.1250000  -0.7083333   0.1250000), wk =   0.0069444
        k(  121) = (  -0.2083333  -0.6250000   0.0416667), wk =   0.0138889
        k(  122) = (  -0.1250000  -0.5416667   0.1250000), wk =   0.0069444
        k(  123) = (  -0.2083333   0.2083333   0.2083333), wk =   0.0023148
        k(  124) = (  -0.2916667   0.2916667   0.1250000), wk =   0.0069444
        k(  125) = (  -0.3750000   0.3750000   0.0416667), wk =   0.0069444
        k(  126) = (  -0.4583333   0.4583333  -0.0416667), wk =   0.0069444
        k(  127) = (   0.4583333  -0.4583333   0.8750000), wk =   0.0069444
        k(  128) = (   0.3750000  -0.3750000   0.7916667), wk =   0.0069444
        k(  129) = (   0.2916667  -0.2916667   0.7083333), wk =   0.0069444
        k(  130) = (   0.2083333  -0.2083333   0.6250000), wk =   0.0069444
        k(  131) = (  -0.2083333   0.3750000   0.2083333), wk =   0.0069444
        k(  132) = (  -0.2916667   0.4583333   0.1250000), wk =   0.0138889
        k(  133) = (  -0.3750000   0.5416667   0.0416667), wk =   0.0138889
        k(  134) = (   0.5416667  -0.3750000   0.9583333), wk =   0.0138889
        k(  135) = (   0.4583333  -0.2916667   0.8750000), wk =   0.0138889
        k(  136) = (   0.3750000  -0.2083333   0.7916667), wk =   0.0138889
        k(  137) = (   0.2916667  -0.1250000   0.7083333), wk =   0.0138889
        k(  138) = (  -0.2083333   0.5416667   0.2083333), wk =   0.0069444
        k(  139) = (  -0.2916667   0.6250000   0.1250000), wk =   0.0138889
        k(  140) = (   0.6250000  -0.2916667   1.0416667), wk =   0.0138889
        k(  141) = (   0.5416667  -0.2083333   0.9583333), wk =   0.0138889
        k(  142) = (   0.4583333  -0.1250000   0.8750000), wk =   0.0138889
        k(  143) = (   0.3750000  -0.0416667   0.7916667), wk =   0.0138889
        k(  144) = (  -0.2083333   0.7083333   0.2083333), wk =   0.0069444
        k(  145) = (   0.7083333  -0.2083333   1.1250000), wk =   0.0138889
        k(  146) = (   0.6250000  -0.1250000   1.0416667), wk =   0.0138889
        k(  147) = (   0.5416667  -0.0416667   0.9583333), wk =   0.0138889
        k(  148) = (   0.4583333   0.0416667   0.8750000), wk =   0.0138889
        k(  149) = (  -0.2083333  -1.1250000   0.2083333), wk =   0.0069444
        k(  150) = (  -0.2916667  -1.0416667   0.1250000), wk =   0.0138889
        k(  151) = (  -0.3750000  -0.9583333   0.0416667), wk =   0.0138889
        k(  152) = (  -0.2083333  -0.9583333   0.2083333), wk =   0.0069444
        k(  153) = (  -0.2916667  -0.8750000   0.1250000), wk =   0.0138889
        k(  154) = (  -0.2083333  -0.7916667   0.2083333), wk =   0.0069444
        k(  155) = (  -0.2916667   0.2916667   0.2916667), wk =   0.0023148
        k(  156) = (  -0.3750000   0.3750000   0.2083333), wk =   0.0069444
        k(  157) = (  -0.4583333   0.4583333   0.1250000), wk =   0.0069444
        k(  158) = (   0.4583333  -0.4583333   1.0416667), wk =   0.0069444
        k(  159) = (   0.3750000  -0.3750000   0.9583333), wk =   0.0069444
        k(  160) = (   0.2916667  -0.2916667   0.8750000), wk =   0.0069444
        k(  161) = (  -0.2916667   0.4583333   0.2916667), wk =   0.0069444
        k(  162) = (  -0.3750000   0.5416667   0.2083333), wk =   0.0138889
        k(  163) = (   0.5416667  -0.3750000   1.1250000), wk =   0.0138889
        k(  164) = (   0.4583333  -0.2916667   1.0416667), wk =   0.0138889
        k(  165) = (   0.3750000  -0.2083333   0.9583333), wk =   0.0138889
        k(  166) = (  -0.2916667   0.6250000   0.2916667), wk =   0.0069444
        k(  167) = (   0.6250000  -0.2916667   1.2083333), wk =   0.0138889
        k(  168) = (   0.5416667  -0.2083333   1.1250000), wk =   0.0138889
        k(  169) = (   0.4583333  -0.1250000   1.0416667), wk =   0.0138889
        k(  170) = (  -0.2916667  -1.2083333   0.2916667), wk =   0.0069444
        k(  171) = (  -0.3750000  -1.1250000   0.2083333), wk =   0.0138889
        k(  172) = (  -0.2916667  -1.0416667   0.2916667), wk =   0.0069444
        k(  173) = (  -0.3750000   0.3750000   0.3750000), wk =   0.0023148
        k(  174) = (  -0.4583333   0.4583333   0.2916667), wk =   0.0069444
        k(  175) = (   0.4583333  -0.4583333   1.2083333), wk =   0.0069444
        k(  176) = (   0.3750000  -0.3750000   1.1250000), wk =   0.0069444
        k(  177) = (  -0.3750000   0.5416667   0.3750000), wk =   0.0069444
        k(  178) = (   0.5416667  -0.3750000   1.2916667), wk =   0.0138889
        k(  179) = (   0.4583333  -0.2916667   1.2083333), wk =   0.0138889
        k(  180) = (  -0.3750000  -1.2916667   0.3750000), wk =   0.0069444
        k(  181) = (  -0.4583333   0.4583333   0.4583333), wk =   0.0023148
        k(  182) = (   0.4583333  -0.4583333   1.3750000), wk =   0.0069444

                       cryst. coord.
        k(    1) = (   0.0416667   0.0416667   0.0416667), wk =   0.0023148
        k(    2) = (   0.0416667   0.0416667   0.1250000), wk =   0.0069444
        k(    3) = (   0.0416667   0.0416667   0.2083333), wk =   0.0069444
        k(    4) = (   0.0416667   0.0416667   0.2916667), wk =   0.0069444
        k(    5) = (   0.0416667   0.0416667   0.3750000), wk =   0.0069444
        k(    6) = (   0.0416667   0.0416667   0.4583333), wk =   0.0069444
        k(    7) = (   0.0416667   0.0416667  -0.4583333), wk =   0.0069444
        k(    8) = (   0.0416667   0.0416667  -0.3750000), wk =   0.0069444
        k(    9) = (   0.0416667   0.0416667  -0.2916667), wk =   0.0069444
        k(   10) = (   0.0416667   0.0416667  -0.2083333), wk =   0.0069444
        k(   11) = (   0.0416667   0.0416667  -0.1250000), wk =   0.0069444
        k(   12) = (   0.0416667   0.0416667  -0.0416667), wk =   0.0069444
        k(   13) = (   0.0416667   0.1250000   0.1250000), wk =   0.0069444
        k(   14) = (   0.0416667   0.1250000   0.2083333), wk =   0.0138889
        k(   15) = (   0.0416667   0.1250000   0.2916667), wk =   0.0138889
        k(   16) = (   0.0416667   0.1250000   0.3750000), wk =   0.0138889
        k(   17) = (   0.0416667   0.1250000   0.4583333), wk =   0.0138889
        k(   18) = (   0.0416667   0.1250000  -0.4583333), wk =   0.0138889
        k(   19) = (   0.0416667   0.1250000  -0.3750000), wk =   0.0138889
        k(   20) = (   0.0416667   0.1250000  -0.2916667), wk =   0.0138889
        k(   21) = (   0.0416667   0.1250000  -0.2083333), wk =   0.0138889
        k(   22) = (   0.0416667   0.1250000  -0.1250000), wk =   0.0138889
        k(   23) = (   0.0416667   0.1250000  -0.0416667), wk =   0.0138889
        k(   24) = (   0.0416667   0.2083333   0.2083333), wk =   0.0069444
        k(   25) = (   0.0416667   0.2083333   0.2916667), wk =   0.0138889
        k(   26) = (   0.0416667   0.2083333   0.3750000), wk =   0.0138889
        k(   27) = (   0.0416667   0.2083333   0.4583333), wk =   0.0138889
        k(   28) = (   0.0416667   0.2083333  -0.4583333), wk =   0.0138889
        k(   29) = (   0.0416667   0.2083333  -0.3750000), wk =   0.0138889
        k(   30) = (   0.0416667   0.2083333  -0.2916667), wk =   0.0138889
        k(   31) = (   0.0416667   0.2083333  -0.2083333), wk =   0.0138889
        k(   32) = (   0.0416667   0.2083333  -0.1250000), wk =   0.0138889
        k(   33) = (   0.0416667   0.2083333  -0.0416667), wk =   0.0138889
        k(   34) = (   0.0416667   0.2916667   0.2916667), wk =   0.0069444
        k(   35) = (   0.0416667   0.2916667   0.3750000), wk =   0.0138889
        k(   36) = (   0.0416667   0.2916667   0.4583333), wk =   0.0138889
        k(   37) = (   0.0416667   0.2916667  -0.4583333), wk =   0.0138889
        k(   38) = (   0.0416667   0.2916667  -0.3750000), wk =   0.0138889
        k(   39) = (   0.0416667   0.2916667  -0.2916667), wk =   0.0138889
        k(   40) = (   0.0416667   0.2916667  -0.2083333), wk =   0.0138889
        k(   41) = (   0.0416667   0.2916667  -0.1250000), wk =   0.0138889
        k(   42) = (   0.0416667   0.2916667  -0.0416667), wk =   0.0138889
        k(   43) = (   0.0416667   0.3750000   0.3750000), wk =   0.0069444
        k(   44) = (   0.0416667   0.3750000   0.4583333), wk =   0.0138889
        k(   45) = (   0.0416667   0.3750000  -0.4583333), wk =   0.0138889
        k(   46) = (   0.0416667   0.3750000  -0.3750000), wk =   0.0138889
        k(   47) = (   0.0416667   0.3750000  -0.2916667), wk =   0.0138889
        k(   48) = (   0.0416667   0.3750000  -0.2083333), wk =   0.0138889
        k(   49) = (   0.0416667   0.3750000  -0.1250000), wk =   0.0138889
        k(   50) = (   0.0416667   0.3750000  -0.0416667), wk =   0.0138889
        k(   51) = (   0.0416667   0.4583333   0.4583333), wk =   0.0069444
        k(   52) = (   0.0416667   0.4583333  -0.4583333), wk =   0.0138889
        k(   53) = (   0.0416667   0.4583333  -0.3750000), wk =   0.0138889
        k(   54) = (   0.0416667   0.4583333  -0.2916667), wk =   0.0138889
        k(   55) = (   0.0416667   0.4583333  -0.2083333), wk =   0.0138889
        k(   56) = (   0.0416667   0.4583333  -0.1250000), wk =   0.0138889
        k(   57) = (   0.0416667   0.4583333  -0.0416667), wk =   0.0138889
        k(   58) = (   0.0416667  -0.4583333  -0.4583333), wk =   0.0069444
        k(   59) = (   0.0416667  -0.4583333  -0.3750000), wk =   0.0138889
        k(   60) = (   0.0416667  -0.4583333  -0.2916667), wk =   0.0138889
        k(   61) = (   0.0416667  -0.4583333  -0.2083333), wk =   0.0138889
        k(   62) = (   0.0416667  -0.4583333  -0.1250000), wk =   0.0138889
        k(   63) = (   0.0416667  -0.3750000  -0.3750000), wk =   0.0069444
        k(   64) = (   0.0416667  -0.3750000  -0.2916667), wk =   0.0138889
        k(   65) = (   0.0416667  -0.3750000  -0.2083333), wk =   0.0138889
        k(   66) = (   0.0416667  -0.3750000  -0.1250000), wk =   0.0138889
        k(   67) = (   0.0416667  -0.2916667  -0.2916667), wk =   0.0069444
        k(   68) = (   0.0416667  -0.2916667  -0.2083333), wk =   0.0138889
        k(   69) = (   0.0416667  -0.2916667  -0.1250000), wk =   0.0138889
        k(   70) = (   0.0416667  -0.2083333  -0.2083333), wk =   0.0069444
        k(   71) = (   0.0416667  -0.2083333  -0.1250000), wk =   0.0138889
        k(   72) = (   0.0416667  -0.1250000  -0.1250000), wk =   0.0069444
        k(   73) = (   0.1250000   0.1250000   0.1250000), wk =   0.0023148
        k(   74) = (   0.1250000   0.1250000   0.2083333), wk =   0.0069444
        k(   75) = (   0.1250000   0.1250000   0.2916667), wk =   0.0069444
        k(   76) = (   0.1250000   0.1250000   0.3750000), wk =   0.0069444
        k(   77) = (   0.1250000   0.1250000   0.4583333), wk =   0.0069444
        k(   78) = (   0.1250000   0.1250000  -0.4583333), wk =   0.0069444
        k(   79) = (   0.1250000   0.1250000  -0.3750000), wk =   0.0069444
        k(   80) = (   0.1250000   0.1250000  -0.2916667), wk =   0.0069444
        k(   81) = (   0.1250000   0.1250000  -0.2083333), wk =   0.0069444
        k(   82) = (   0.1250000   0.1250000  -0.1250000), wk =   0.0069444
        k(   83) = (   0.1250000   0.2083333   0.2083333), wk =   0.0069444
        k(   84) = (   0.1250000   0.2083333   0.2916667), wk =   0.0138889
        k(   85) = (   0.1250000   0.2083333   0.3750000), wk =   0.0138889
        k(   86) = (   0.1250000   0.2083333   0.4583333), wk =   0.0138889
        k(   87) = (   0.1250000   0.2083333  -0.4583333), wk =   0.0138889
        k(   88) = (   0.1250000   0.2083333  -0.3750000), wk =   0.0138889
        k(   89) = (   0.1250000   0.2083333  -0.2916667), wk =   0.0138889
        k(   90) = (   0.1250000   0.2083333  -0.2083333), wk =   0.0138889
        k(   91) = (   0.1250000   0.2083333  -0.1250000), wk =   0.0138889
        k(   92) = (   0.1250000   0.2916667   0.2916667), wk =   0.0069444
        k(   93) = (   0.1250000   0.2916667   0.3750000), wk =   0.0138889
        k(   94) = (   0.1250000   0.2916667   0.4583333), wk =   0.0138889
        k(   95) = (   0.1250000   0.2916667  -0.4583333), wk =   0.0138889
        k(   96) = (   0.1250000   0.2916667  -0.3750000), wk =   0.0138889
        k(   97) = (   0.1250000   0.2916667  -0.2916667), wk =   0.0138889
        k(   98) = (   0.1250000   0.2916667  -0.2083333), wk =   0.0138889
        k(   99) = (   0.1250000   0.2916667  -0.1250000), wk =   0.0138889
        k(  100) = (   0.1250000   0.3750000   0.3750000), wk =   0.0069444
        k(  101) = (   0.1250000   0.3750000   0.4583333), wk =   0.0138889
        k(  102) = (   0.1250000   0.3750000  -0.4583333), wk =   0.0138889
        k(  103) = (   0.1250000   0.3750000  -0.3750000), wk =   0.0138889
        k(  104) = (   0.1250000   0.3750000  -0.2916667), wk =   0.0138889
        k(  105) = (   0.1250000   0.3750000  -0.2083333), wk =   0.0138889
        k(  106) = (   0.1250000   0.3750000  -0.1250000), wk =   0.0138889
        k(  107) = (   0.1250000   0.4583333   0.4583333), wk =   0.0069444
        k(  108) = (   0.1250000   0.4583333  -0.4583333), wk =   0.0138889
        k(  109) = (   0.1250000   0.4583333  -0.3750000), wk =   0.0138889
        k(  110) = (   0.1250000   0.4583333  -0.2916667), wk =   0.0138889
        k(  111) = (   0.1250000   0.4583333  -0.2083333), wk =   0.0138889
        k(  112) = (   0.1250000   0.4583333  -0.1250000), wk =   0.0138889
        k(  113) = (   0.1250000  -0.4583333  -0.4583333), wk =   0.0069444
        k(  114) = (   0.1250000  -0.4583333  -0.3750000), wk =   0.0138889
        k(  115) = (   0.1250000  -0.4583333  -0.2916667), wk =   0.0138889
        k(  116) = (   0.1250000  -0.4583333  -0.2083333), wk =   0.0138889
        k(  117) = (   0.1250000  -0.3750000  -0.3750000), wk =   0.0069444
        k(  118) = (   0.1250000  -0.3750000  -0.2916667), wk =   0.0138889
        k(  119) = (   0.1250000  -0.3750000  -0.2083333), wk =   0.0138889
        k(  120) = (   0.1250000  -0.2916667  -0.2916667), wk =   0.0069444
        k(  121) = (   0.1250000  -0.2916667  -0.2083333), wk =   0.0138889
        k(  122) = (   0.1250000  -0.2083333  -0.2083333), wk =   0.0069444
        k(  123) = (   0.2083333   0.2083333   0.2083333), wk =   0.0023148
        k(  124) = (   0.2083333   0.2083333   0.2916667), wk =   0.0069444
        k(  125) = (   0.2083333   0.2083333   0.3750000), wk =   0.0069444
        k(  126) = (   0.2083333   0.2083333   0.4583333), wk =   0.0069444
        k(  127) = (   0.2083333   0.2083333  -0.4583333), wk =   0.0069444
        k(  128) = (   0.2083333   0.2083333  -0.3750000), wk =   0.0069444
        k(  129) = (   0.2083333   0.2083333  -0.2916667), wk =   0.0069444
        k(  130) = (   0.2083333   0.2083333  -0.2083333), wk =   0.0069444
        k(  131) = (   0.2083333   0.2916667   0.2916667), wk =   0.0069444
        k(  132) = (   0.2083333   0.2916667   0.3750000), wk =   0.0138889
        k(  133) = (   0.2083333   0.2916667   0.4583333), wk =   0.0138889
        k(  134) = (   0.2083333   0.2916667  -0.4583333), wk =   0.0138889
        k(  135) = (   0.2083333   0.2916667  -0.3750000), wk =   0.0138889
        k(  136) = (   0.2083333   0.2916667  -0.2916667), wk =   0.0138889
        k(  137) = (   0.2083333   0.2916667  -0.2083333), wk =   0.0138889
        k(  138) = (   0.2083333   0.3750000   0.3750000), wk =   0.0069444
        k(  139) = (   0.2083333   0.3750000   0.4583333), wk =   0.0138889
        k(  140) = (   0.2083333   0.3750000  -0.4583333), wk =   0.0138889
        k(  141) = (   0.2083333   0.3750000  -0.3750000), wk =   0.0138889
        k(  142) = (   0.2083333   0.3750000  -0.2916667), wk =   0.0138889
        k(  143) = (   0.2083333   0.3750000  -0.2083333), wk =   0.0138889
        k(  144) = (   0.2083333   0.4583333   0.4583333), wk =   0.0069444
        k(  145) = (   0.2083333   0.4583333  -0.4583333), wk =   0.0138889
        k(  146) = (   0.2083333   0.4583333  -0.3750000), wk =   0.0138889
        k(  147) = (   0.2083333   0.4583333  -0.2916667), wk =   0.0138889
        k(  148) = (   0.2083333   0.4583333  -0.2083333), wk =   0.0138889
        k(  149) = (   0.2083333  -0.4583333  -0.4583333), wk =   0.0069444
        k(  150) = (   0.2083333  -0.4583333  -0.3750000), wk =   0.0138889
        k(  151) = (   0.2083333  -0.4583333  -0.2916667), wk =   0.0138889
        k(  152) = (   0.2083333  -0.3750000  -0.3750000), wk =   0.0069444
        k(  153) = (   0.2083333  -0.3750000  -0.2916667), wk =   0.0138889
        k(  154) = (   0.2083333  -0.2916667  -0.2916667), wk =   0.0069444
        k(  155) = (   0.2916667   0.2916667   0.2916667), wk =   0.0023148
        k(  156) = (   0.2916667   0.2916667   0.3750000), wk =   0.0069444
        k(  157) = (   0.2916667   0.2916667   0.4583333), wk =   0.0069444
        k(  158) = (   0.2916667   0.2916667  -0.4583333), wk =   0.0069444
        k(  159) = (   0.2916667   0.2916667  -0.3750000), wk =   0.0069444
        k(  160) = (   0.2916667   0.2916667  -0.2916667), wk =   0.0069444
        k(  161) = (   0.2916667   0.3750000   0.3750000), wk =   0.0069444
        k(  162) = (   0.2916667   0.3750000   0.4583333), wk =   0.0138889
        k(  163) = (   0.2916667   0.3750000  -0.4583333), wk =   0.0138889
        k(  164) = (   0.2916667   0.3750000  -0.3750000), wk =   0.0138889
        k(  165) = (   0.2916667   0.3750000  -0.2916667), wk =   0.0138889
        k(  166) = (   0.2916667   0.4583333   0.4583333), wk =   0.0069444
        k(  167) = (   0.2916667   0.4583333  -0.4583333), wk =   0.0138889
        k(  168) = (   0.2916667   0.4583333  -0.3750000), wk =   0.0138889
        k(  169) = (   0.2916667   0.4583333  -0.2916667), wk =   0.0138889
        k(  170) = (   0.2916667  -0.4583333  -0.4583333), wk =   0.0069444
        k(  171) = (   0.2916667  -0.4583333  -0.3750000), wk =   0.0138889
        k(  172) = (   0.2916667  -0.3750000  -0.3750000), wk =   0.0069444
        k(  173) = (   0.3750000   0.3750000   0.3750000), wk =   0.0023148
        k(  174) = (   0.3750000   0.3750000   0.4583333), wk =   0.0069444
        k(  175) = (   0.3750000   0.3750000  -0.4583333), wk =   0.0069444
        k(  176) = (   0.3750000   0.3750000  -0.3750000), wk =   0.0069444
        k(  177) = (   0.3750000   0.4583333   0.4583333), wk =   0.0069444
        k(  178) = (   0.3750000   0.4583333  -0.4583333), wk =   0.0138889
        k(  179) = (   0.3750000   0.4583333  -0.3750000), wk =   0.0138889
        k(  180) = (   0.3750000  -0.4583333  -0.4583333), wk =   0.0069444
        k(  181) = (   0.4583333   0.4583333   0.4583333), wk =   0.0023148
        k(  182) = (   0.4583333   0.4583333  -0.4583333), wk =   0.0069444

     Dense  grid:      609 G-vectors     FFT dimensions: (  12,  12,  12)

     Dynamical RAM for                 wfc:       0.01 MB

     Dynamical RAM for     wfc (w. buffer):       1.32 MB

     Dynamical RAM for           str. fact:       0.01 MB

     Dynamical RAM for           local pot:       0.00 MB

     Dynamical RAM for          nlocal pot:       0.00 MB

     Dynamical RAM for                qrad:       0.05 MB

     Dynamical RAM for          rho,v,vnew:       0.07 MB

     Dynamical RAM for               rhoin:       0.02 MB

     Dynamical RAM for            rho*nmix:       0.15 MB

     Dynamical RAM for           G-vectors:       0.04 MB

     Dynamical RAM for          h,s,v(r/c):       0.01 MB

     Dynamical RAM for          <psi|beta>:       0.00 MB

     Dynamical RAM for                 psi:       0.01 MB

     Dynamical RAM for                hpsi:       0.01 MB

     Dynamical RAM for      wfcinit/wfcrot:       0.02 MB

     Estimated static dynamical RAM per process >       1.75 MB

     Estimated max dynamical RAM per process >       1.78 MB

     Initial potential from superposition of free atoms

     starting charge    2.99794, renormalised to    3.00000
     Starting wfcs are    4 randomized atomic wfcs +    2 random wfcs

     total cpu time spent up to now is        0.1 secs

     Self-consistent Calculation

     iteration #  1     ecut=    12.00 Ry     beta= 0.70
     Davidson diagonalization with overlap
     ethr =  1.00E-02,  avg # of iterations =  5.2

     Threshold (ethr) on eigenvalues was too large:
     Diagonalizing with lowered threshold

     Davidson diagonalization with overlap
     ethr =  2.03E-04,  avg # of iterations =  1.6

     total cpu time spent up to now is        0.4 secs

     total energy              =      -4.18252420 Ry
     estimated scf accuracy    <       0.00608246 Ry

     iteration #  2     ecut=    12.00 Ry     beta= 0.70
     Davidson diagonalization with overlap
     ethr =  2.03E-04,  avg # of iterations =  1.0

     total cpu time spent up to now is        0.5 secs

     total energy              =      -4.18251324 Ry
     estimated scf accuracy    <       0.00046186 Ry

     iteration #  3     ecut=    12.00 Ry     beta= 0.70
     Davidson diagonalization with overlap
     ethr =  1.54E-05,  avg # of iterations =  2.2

     total cpu time spent up to now is        0.6 secs

     End of self-consistent calculation

          k =-0.0417 0.0417 0.0417 (    65 PWs)   bands (ev):

    -3.3019  19.1757  20.0179  20.0182  21.5803  21.5843

     occupation numbers 
     1.0000   0.0000   0.0000   0.0000   0.0000   0.0000

          k =-0.1250 0.1250-0.0417 (    69 PWs)   bands (ev):

    -3.0528  16.9789  18.3220  20.2467  21.7225  22.3311

     occupation numbers 
     1.0000   0.0000   0.0000   0.0000   0.0000   0.0000

          k =-0.2083 0.2083-0.1250 (    73 PWs)   bands (ev):

    -2.4266  13.7183  17.5938  19.6023  22.2788  22.4997

     occupation numbers 
     1.0000   0.0000   0.0000   0.0000   0.0000   0.0000

          k =-0.2917 0.2917-0.2083 (    74 PWs)   bands (ev):

    -1.4242  10.6188  17.1823  19.1999  21.1966  22.1023

     occupation numbers 
     1.0000   0.0001   0.0000   0.0000   0.0000   0.0000

          k =-0.3750 0.3750-0.2917 (    74 PWs)   bands (ev):

    -0.0651   7.7765  17.0879  19.0636  19.8930  21.0389

     occupation numbers 
     1.0000   0.3635   0.0000   0.0000   0.0000   0.0000

          k =-0.4583 0.4583-0.3750 (    76 PWs)   bands (ev):

     1.6407   5.2194  17.3080  18.6600  19.4555  19.9738

     occupation numbers 
     1.0000   1.0575   0.0000   0.0000   0.0000   0.0000

          k = 0.4583-0.4583 0.5417 (    76 PWs)   bands (ev):

     2.9617   3.6861  17.8444  17.9620  19.2187  19.9420

     occupation numbers 
     1.0001   1.0018   0.0000   0.0000   0.0000   0.0000

          k = 0.3750-0.3750 0.4583 (    74 PWs)   bands (ev):

     1.0345   6.0403  17.5413  18.5915  18.8909  20.7855

     occupation numbers 
     1.0000   1.0726   0.0000   0.0000   0.0000   0.0000

          k = 0.2917-0.2917 0.3750 (    74 PWs)   bands (ev):

    -0.5574   8.6936  17.4285  18.6105  19.9145  22.3418

     occupation numbers 
     1.0000   0.0718   0.0000   0.0000   0.0000   0.0000

          k = 0.2083-0.2083 0.2917 (    74 PWs)   bands (ev):

    -1.7977  11.6267  17.6279  18.7982  21.3295  22.3911

     occupation numbers 
     1.0000   0.0000   0.0000   0.0000   0.0000   0.0000

          k = 0.1250-0.1250 0.2083 (    70 PWs)   bands (ev):

    -2.6755  14.8035  18.1387  19.2663  22.1482  22.7377

     occupation numbers 
     1.0000   0.0000   0.0000   0.0000   0.0000   0.0000

          k = 0.0417-0.0417 0.1250 (    65 PWs)   bands (ev):

    -3.1752  18.0963  18.9565  19.7934  21.2152  22.6073

     occupation numbers 
     1.0000   0.0000   0.0000   0.0000   0.0000   0.0000

          k =-0.0417 0.2083 0.0417 (    69 PWs)   bands (ev):

    -2.9265  17.0337  17.9209  18.9212  20.7254  23.3506

     occupation numbers 
     1.0000   0.0000   0.0000   0.0000   0.0000   0.0000

          k =-0.1250 0.2917-0.0417 (    72 PWs)   bands (ev):

    -2.4247  14.9016  16.4487  19.0909  20.6475  21.5800

     occupation numbers 
     1.0000   0.0000   0.0000   0.0000   0.0000   0.0000

          k =-0.2083 0.3750-0.1250 (    74 PWs)   bands (ev):

    -1.5497  11.8188  15.8833  18.8406  19.2700  22.7448

     occupation numbers 
     1.0000   0.0000   0.0000   0.0000   0.0000   0.0000

          k =-0.2917 0.4583-0.2083 (    76 PWs)   bands (ev):

    -0.3127   8.9086  15.6677  17.7514  18.7244  22.9540

     occupation numbers 
     1.0000   0.0434   0.0000   0.0000   0.0000   0.0000

          k =-0.3750 0.5417-0.2917 (    78 PWs)   bands (ev):

     1.2744   6.2647  15.7733  16.5606  18.8614  21.8198

     occupation numbers 
     1.0000   1.0423   0.0000   0.0000   0.0000   0.0000

          k = 0.5417-0.3750 0.6250 (    79 PWs)   bands (ev):

     3.1955   3.9201  15.6636  16.2269  19.3139  20.9718

     occupation numbers 
     1.0003   1.0038   0.0000   0.0000   0.0000   0.0000

          k = 0.4583-0.2917 0.5417 (    79 PWs)   bands (ev):

     1.8788   5.4470  15.1206  16.9765  20.0067  20.5148

     occupation numbers 
     1.0000   1.0723   0.0000   0.0000   0.0000   0.0000

          k = 0.3750-0.2083 0.4583 (    77 PWs)   bands (ev):

     0.1773   7.9919  14.9069  18.0455  20.1252  21.2621

     occupation numbers 
     1.0000   0.2673   0.0000   0.0000   0.0000   0.0000

          k = 0.2917-0.1250 0.3750 (    77 PWs)   bands (ev):

    -1.1800  10.8071  15.0273  19.3785  20.2553  22.5758

     occupation numbers 
     1.0000   0.0001   0.0000   0.0000   0.0000   0.0000

          k = 0.2083-0.0417 0.2917 (    73 PWs)   bands (ev):

    -2.1735  13.7927  15.5513  20.3933  20.9858  22.4276

     occupation numbers 
     1.0000   0.0000   0.0000   0.0000   0.0000   0.0000

          k = 0.1250 0.0417 0.2083 (    69 PWs)   bands (ev):

    -2.8004  15.8986  17.3689  19.8966  21.4051  23.2099

     occupation numbers 
     1.0000   0.0000   0.0000   0.0000   0.0000   0.0000

          k =-0.0417 0.3750 0.0417 (    76 PWs)   bands (ev):

    -2.0525  15.1653  16.1416  17.0791  18.8759  19.6581

     occupation numbers 
     1.0000   0.0000   0.0000   0.0000   0.0000   0.0000

          k =-0.1250 0.4583-0.0417 (    78 PWs)   bands (ev):

    -1.3064  13.2169  14.8632  16.9637  17.4869  19.8670

     occupation numbers 
     1.0000   0.0000   0.0000   0.0000   0.0000   0.0000

          k =-0.2083 0.5417-0.1250 (    79 PWs)   bands (ev):

    -0.1940  10.3399  14.4815  15.3228  17.5415  21.6389

     occupation numbers 
     1.0000   0.0005   0.0000   0.0000   0.0000   0.0000

          k =-0.2917 0.6250-0.2083 (    81 PWs)   bands (ev):

     1.2706   7.6369  13.9402  14.5271  17.6427  23.7942

     occupation numbers 
     1.0000   0.4334   0.0000   0.0000   0.0000   0.0000

          k = 0.6250-0.2917 0.7083 (    79 PWs)   bands (ev):

     3.0749   5.2109  12.9617  14.8319  18.0338  23.3994

     occupation numbers 
     1.0002   1.0569   0.0000   0.0000   0.0000   0.0000

          k = 0.5417-0.2083 0.6250 (    79 PWs)   bands (ev):

     3.0772   5.2028  12.3024  15.4805  18.7294  22.7694

     occupation numbers 
     1.0002   1.0563   0.0000   0.0000   0.0000   0.0000

          k = 0.4583-0.1250 0.5417 (    79 PWs)   bands (ev):

     1.2712   7.6082  12.0056  16.4521  19.7309  22.4340

     occupation numbers 
     1.0000   0.4484   0.0000   0.0000   0.0000   0.0000

          k = 0.3750-0.0417 0.4583 (    78 PWs)   bands (ev):

    -0.1932  10.1725  12.1744  17.7377  21.0081  22.3108

     occupation numbers 
     1.0000   0.0009   0.0000   0.0000   0.0000   0.0000

          k = 0.2917 0.0417 0.3750 (    75 PWs)   bands (ev):

    -1.3021  11.8762  13.7986  19.3053  21.2564  22.3986

     occupation numbers 
     1.0000   0.0000   0.0000   0.0000   0.0000   0.0000

          k = 0.2083 0.1250 0.2917 (    73 PWs)   bands (ev):

    -2.0483  12.7180  16.7133  19.4509  21.1698  22.9912

     occupation numbers 
     1.0000   0.0000   0.0000   0.0000   0.0000   0.0000

          k =-0.0417 0.5417 0.0417 (    77 PWs)   bands (ev):

    -0.6861  13.7052  14.7830  14.8671  15.6057  18.4256

     occupation numbers 
     1.0000   0.0000   0.0000   0.0000   0.0000   0.0000

          k =-0.1250 0.6250-0.0417 (    80 PWs)   bands (ev):

     0.2942  11.9632  13.0434  13.7367  16.2531  18.8255

     occupation numbers 
     1.0000   0.0000   0.0000   0.0000   0.0000   0.0000

          k =-0.2083 0.7083-0.1250 (    80 PWs)   bands (ev):

     1.6321   9.3050  11.6110  13.5468  16.5515  20.7940

     occupation numbers 
     1.0000   0.0152   0.0000   0.0000   0.0000   0.0000

          k = 0.7083-0.2083 0.7917 (    79 PWs)   bands (ev):

     3.3056   6.8269  10.4924  13.7518  16.8942  23.3604

     occupation numbers 
     1.0005   0.8609   0.0002   0.0000   0.0000   0.0000

          k = 0.6250-0.1250 0.7083 (    83 PWs)   bands (ev):

     4.6006   5.2977   9.7274  14.2896  17.5043  25.3328

     occupation numbers 
     1.0206   1.0628   0.0042   0.0000   0.0000   0.0000

          k = 0.5417-0.0417 0.6250 (    81 PWs)   bands (ev):

     2.7163   7.4392   9.4539  15.1584  18.4317  24.9736

     occupation numbers 
     1.0000   0.5395   0.0098   0.0000   0.0000   0.0000

          k = 0.4583 0.0417 0.5417 (    78 PWs)   bands (ev):

     1.1505   8.6932  10.7221  16.3473  19.6529  23.5373

     occupation numbers 
     1.0000   0.0718   0.0001   0.0000   0.0000   0.0000

          k = 0.3750 0.1250 0.4583 (    77 PWs)   bands (ev):

    -0.0692   9.1019  13.4370  17.8406  20.9207  21.4121

     occupation numbers 
     1.0000   0.0266   0.0000   0.0000   0.0000   0.0000

          k = 0.2917 0.2083 0.3750 (    75 PWs)   bands (ev):

    -0.9290   9.7102  16.3993  19.1425  19.7112  22.4859

     occupation numbers 
     1.0000   0.0044   0.0000   0.0000   0.0000   0.0000

          k =-0.0417 0.7083 0.0417 (    79 PWs)   bands (ev):

     1.1471  11.1415  12.6923  13.8454  14.5712  17.5256

     occupation numbers 
     1.0000   0.0000   0.0000   0.0000   0.0000   0.0000

          k =-0.1250 0.7917-0.0417 (    81 PWs)   bands (ev):

     2.3473   9.5401  11.1845  12.9589  15.4583  18.1223

     occupation numbers 
     1.0000   0.0076   0.0000   0.0000   0.0000   0.0000

          k = 0.7917-0.1250 0.8750 (    80 PWs)   bands (ev):

     3.8760   8.2480   8.8203  13.0011  15.9887  20.3032

     occupation numbers 
     1.0033   0.1750   0.0537   0.0000   0.0000   0.0000

          k = 0.7083-0.0417 0.7917 (    79 PWs)   bands (ev):

     5.6054   6.4496   7.5989  13.4271  16.5638  23.1053

     occupation numbers 
     1.0799   0.9995   0.4533   0.0000   0.0000   0.0000

          k = 0.6250 0.0417 0.7083 (    82 PWs)   bands (ev):

     4.4909   6.4143   8.3993  14.1809  17.3982  25.9602

     occupation numbers 
     1.0163   1.0090   0.1322   0.0000   0.0000   0.0000

          k = 0.5417 0.1250 0.6250 (    81 PWs)   bands (ev):

     2.8357   6.3363  10.7621  15.2645  18.5303  23.8318

     occupation numbers 
     1.0001   1.0277   0.0001   0.0000   0.0000   0.0000

          k = 0.4583 0.2083 0.5417 (    79 PWs)   bands (ev):

     1.5155   6.4863  13.5167  16.6634  19.8841  21.3848

     occupation numbers 
     1.0000   0.9890   0.0000   0.0000   0.0000   0.0000

          k = 0.3750 0.2917 0.4583 (    75 PWs)   bands (ev):

     0.5460   6.9662  16.4076  18.3380  19.2619  21.2337

     occupation numbers 
     1.0000   0.7947   0.0000   0.0000   0.0000   0.0000

          k =-0.0417 0.8750 0.0417 (    84 PWs)   bands (ev):

     3.4008   7.8355  12.1182  13.3256  13.9958  16.9833

     occupation numbers 
     1.0007   0.3356   0.0000   0.0000   0.0000   0.0000

          k = 0.8750-0.0417 0.9583 (    81 PWs)   bands (ev):

     4.6956   6.5741  10.8381  12.6332  15.1186  17.8218

     occupation numbers 
     1.0250   0.9612   0.0001   0.0000   0.0000   0.0000

          k = 0.7917 0.0417 0.8750 (    79 PWs)   bands (ev):

     5.0399   6.9271   8.6558  12.8929  15.8787  20.2105

     occupation numbers 
     1.0452   0.8139   0.0780   0.0000   0.0000   0.0000

          k = 0.7083 0.1250 0.7917 (    79 PWs)   bands (ev):

     4.4623   6.5896   8.9265  13.5343  16.6757  23.1922

     occupation numbers 
     1.0153   0.9559   0.0416   0.0000   0.0000   0.0000

          k = 0.6250 0.2083 0.7083 (    80 PWs)   bands (ev):

     4.1266   4.8649  11.2880  14.5078  17.7222  24.3449

     occupation numbers 
     1.0067   1.0341   0.0000   0.0000   0.0000   0.0000

          k = 0.5417 0.2917 0.6250 (    80 PWs)   bands (ev):

     3.4309   4.1546  13.9497  15.7996  19.0002  21.8075

     occupation numbers 
     1.0008   1.0072   0.0000   0.0000   0.0000   0.0000

          k = 0.4583 0.3750 0.5417 (    77 PWs)   bands (ev):

     2.3639   4.5111  16.7338  17.3845  19.5588  20.2877

     occupation numbers 
     1.0000   1.0170   0.0000   0.0000   0.0000   0.0000

          k =-0.0417-0.9583 0.0417 (    84 PWs)   bands (ev):

     4.5791   6.4496  12.0031  13.2222  13.8811  16.8813

     occupation numbers 
     1.0197   0.9995   0.0000   0.0000   0.0000   0.0000

          k =-0.1250-0.8750-0.0417 (    83 PWs)   bands (ev):

     3.5185   7.9520  10.9533  12.7402  15.2309  17.9115

     occupation numbers 
     1.0011   0.2839   0.0000   0.0000   0.0000   0.0000

          k =-0.2083-0.7917-0.1250 (    80 PWs)   bands (ev):

     2.7079   8.9406   9.9373  13.2191  16.2146  20.5026

     occupation numbers 
     1.0000   0.0402   0.0020   0.0000   0.0000   0.0000

          k =-0.2917-0.7083-0.2083 (    80 PWs)   bands (ev):

     2.2352   7.1759  12.1752  14.0772  17.2180  23.5926

     occupation numbers 
     1.0000   0.6847   0.0000   0.0000   0.0000   0.0000

          k =-0.3750-0.6250-0.2917 (    79 PWs)   bands (ev):

     2.1181   5.6796  14.7106  15.2730  18.4231  22.5488

     occupation numbers 
     1.0000   1.0822   0.0000   0.0000   0.0000   0.0000

          k =-0.0417-0.7917 0.0417 (    79 PWs)   bands (ev):

     2.2285   9.4357  12.3490  13.5345  14.2277  17.2135

     occupation numbers 
     1.0000   0.0104   0.0000   0.0000   0.0000   0.0000

          k =-0.1250-0.7083-0.0417 (    80 PWs)   bands (ev):

     1.2672  11.2136  11.5544  13.2864  15.8007  18.4289

     occupation numbers 
     1.0000   0.0000   0.0000   0.0000   0.0000   0.0000

          k =-0.2083-0.6250-0.1250 (    79 PWs)   bands (ev):

     0.6627   9.7678  13.3821  14.0020  16.9989  21.1763

     occupation numbers 
     1.0000   0.0036   0.0000   0.0000   0.0000   0.0000

          k =-0.2917-0.5417-0.2083 (    78 PWs)   bands (ev):

     0.4212   8.2164  15.0177  15.8534  18.1613  23.5115

     occupation numbers 
     1.0000   0.1850   0.0000   0.0000   0.0000   0.0000

          k =-0.0417-0.6250 0.0417 (    79 PWs)   bands (ev):

     0.1730  12.9310  13.1670  14.2612  15.0298  17.9321

     occupation numbers 
     1.0000   0.0000   0.0000   0.0000   0.0000   0.0000

          k =-0.1250-0.5417-0.0417 (    79 PWs)   bands (ev):

    -0.5647  12.5359  14.2075  15.0029  16.8164  19.3080

     occupation numbers 
     1.0000   0.0000   0.0000   0.0000   0.0000   0.0000

          k =-0.2083-0.4583-0.1250 (    77 PWs)   bands (ev):

    -0.9319  11.0242  15.1371  17.2671  18.1744  22.1698

     occupation numbers 
     1.0000   0.0000   0.0000   0.0000   0.0000   0.0000

          k =-0.0417-0.4583 0.0417 (    76 PWs)   bands (ev):

    -1.4288  14.3832  15.4095  16.2836  16.8657  18.9908

     occupation numbers 
     1.0000   0.0000   0.0000   0.0000   0.0000   0.0000

          k =-0.1250-0.3750-0.0417 (    78 PWs)   bands (ev):

    -1.9293  14.0049  15.6058  18.2500  18.9715  20.5146

     occupation numbers 
     1.0000   0.0000   0.0000   0.0000   0.0000   0.0000

          k =-0.0417-0.2917 0.0417 (    74 PWs)   bands (ev):

    -2.5524  16.0510  16.9790  17.9677  20.0981  21.2114

     occupation numbers 
     1.0000   0.0000   0.0000   0.0000   0.0000   0.0000

          k =-0.1250 0.1250 0.1250 (    68 PWs)   bands (ev):

    -2.9255  15.8818  19.1755  19.1755  22.0925  22.9140

     occupation numbers 
     1.0000   0.0000   0.0000   0.0000   0.0000   0.0000

          k =-0.2083 0.2083 0.0417 (    73 PWs)   bands (ev):

    -2.5522  14.7982  16.4590  20.6791  21.8100  22.8152

     occupation numbers 
     1.0000   0.0000   0.0000   0.0000   0.0000   0.0000

          k =-0.2917 0.2917-0.0417 (    75 PWs)   bands (ev):

    -1.8005  12.7808  14.6428  20.5877  21.5561  22.7583

     occupation numbers 
     1.0000   0.0000   0.0000   0.0000   0.0000   0.0000

          k =-0.3750 0.3750-0.1250 (    75 PWs)   bands (ev):

    -0.6832   9.9029  14.1948  19.1850  21.1997  21.2724

     occupation numbers 
     1.0000   0.0023   0.0000   0.0000   0.0000   0.0000

          k =-0.4583 0.4583-0.2083 (    78 PWs)   bands (ev):

     0.7871   7.1832  14.1712  17.9526  19.8857  21.2415

     occupation numbers 
     1.0000   0.6808   0.0000   0.0000   0.0000   0.0000

          k = 0.4583-0.4583 0.7083 (    79 PWs)   bands (ev):

     2.6003   4.7415  14.4946  17.0083  18.8662  21.5516

     occupation numbers 
     1.0000   1.0273   0.0000   0.0000   0.0000   0.0000

          k = 0.3750-0.3750 0.6250 (    80 PWs)   bands (ev):

     2.5997   4.7423  15.1562  16.3737  18.1657  22.1850

     occupation numbers 
     1.0000   1.0273   0.0000   0.0000   0.0000   0.0000

          k = 0.2917-0.2917 0.5417 (    78 PWs)   bands (ev):

     0.7871   7.1898  16.0543  16.1503  17.7974  23.1280

     occupation numbers 
     1.0000   0.6772   0.0000   0.0000   0.0000   0.0000

          k = 0.2083-0.2083 0.4583 (    76 PWs)   bands (ev):

    -0.6825   9.9246  16.0494  17.4627  17.7423  23.4200

     occupation numbers 
     1.0000   0.0021   0.0000   0.0000   0.0000   0.0000

          k = 0.1250-0.1250 0.3750 (    77 PWs)   bands (ev):

    -1.8030  12.9105  16.3559  17.9273  19.0702  21.5229

     occupation numbers 
     1.0000   0.0000   0.0000   0.0000   0.0000   0.0000

          k =-0.1250 0.2917 0.1250 (    71 PWs)   bands (ev):

    -2.2981  13.8102  17.1970  18.6827  20.9819  22.3429

     occupation numbers 
     1.0000   0.0000   0.0000   0.0000   0.0000   0.0000

          k =-0.2083 0.3750 0.0417 (    75 PWs)   bands (ev):

    -1.6756  12.8912  14.7110  19.1332  19.7441  21.6808

     occupation numbers 
     1.0000   0.0000   0.0000   0.0000   0.0000   0.0000

          k =-0.2917 0.4583-0.0417 (    75 PWs)   bands (ev):

    -0.6831  11.0822  13.0407  17.4482  20.6321  22.2247

     occupation numbers 
     1.0000   0.0000   0.0000   0.0000   0.0000   0.0000

          k =-0.3750 0.5417-0.1250 (    79 PWs)   bands (ev):

     0.6630   8.4128  12.7700  16.0359  20.6717  21.6980

     occupation numbers 
     1.0000   0.1288   0.0000   0.0000   0.0000   0.0000

          k = 0.5417-0.3750 0.7917 (    79 PWs)   bands (ev):

     2.3603   5.9033  12.9560  14.9455  20.4080  21.1773

     occupation numbers 
     1.0000   1.0810   0.0000   0.0000   0.0000   0.0000

          k = 0.4583-0.2917 0.7083 (    80 PWs)   bands (ev):

     3.6636   4.3922  13.4748  14.2020  19.7187  21.6437

     occupation numbers 
     1.0017   1.0130   0.0000   0.0000   0.0000   0.0000

          k = 0.3750-0.2083 0.6250 (    80 PWs)   bands (ev):

     1.7556   6.7157  13.6778  14.4513  19.2579  22.4679

     occupation numbers 
     1.0000   0.9085   0.0000   0.0000   0.0000   0.0000

          k = 0.2917-0.1250 0.5417 (    79 PWs)   bands (ev):

     0.1743   9.3249  13.6153  15.6382  19.0762  22.8869

     occupation numbers 
     1.0000   0.0144   0.0000   0.0000   0.0000   0.0000

          k = 0.2083-0.0417 0.4583 (    77 PWs)   bands (ev):

    -1.0560  12.0979  13.9564  17.1680  19.0088  21.0846

     occupation numbers 
     1.0000   0.0000   0.0000   0.0000   0.0000   0.0000

          k =-0.1250 0.4583 0.1250 (    79 PWs)   bands (ev):

    -1.1830  12.1221  15.6220  17.0317  17.2090  20.8800

     occupation numbers 
     1.0000   0.0000   0.0000   0.0000   0.0000   0.0000

          k =-0.2083 0.5417 0.0417 (    78 PWs)   bands (ev):

    -0.3162  11.4168  13.2951  15.2209  18.3573  20.5568

     occupation numbers 
     1.0000   0.0000   0.0000   0.0000   0.0000   0.0000

          k =-0.2917 0.6250-0.0417 (    79 PWs)   bands (ev):

     0.9060   9.8280  11.7967  13.6806  19.4853  21.4881

     occupation numbers 
     1.0000   0.0030   0.0000   0.0000   0.0000   0.0000

          k = 0.6250-0.2917 0.8750 (    80 PWs)   bands (ev):

     2.4742   7.3752  11.6953  12.5025  19.8545  22.9777

     occupation numbers 
     1.0000   0.5748   0.0000   0.0000   0.0000   0.0000

          k = 0.5417-0.2083 0.7917 (    81 PWs)   bands (ev):

     4.3608   5.0916  11.4462  12.2752  20.3411  22.3498

     occupation numbers 
     1.0121   1.0487   0.0000   0.0000   0.0000   0.0000

          k = 0.4583-0.1250 0.7083 (    82 PWs)   bands (ev):

     3.0722   6.5662  10.9643  12.9989  21.0212  21.8624

     occupation numbers 
     1.0002   0.9638   0.0000   0.0000   0.0000   0.0000

          k = 0.3750-0.0417 0.6250 (    79 PWs)   bands (ev):

     1.3920   8.9193  10.9294  14.1042  21.2316  22.0746

     occupation numbers 
     1.0000   0.0423   0.0000   0.0000   0.0000   0.0000

          k = 0.2917 0.0417 0.5417 (    76 PWs)   bands (ev):

     0.0546  10.3995  12.3722  15.5371  20.0222  21.8731

     occupation numbers 
     1.0000   0.0004   0.0000   0.0000   0.0000   0.0000

          k =-0.1250 0.6250 0.1250 (    79 PWs)   bands (ev):

     0.4176  10.8706  13.1909  14.4719  15.9618  19.8380

     occupation numbers 
     1.0000   0.0000   0.0000   0.0000   0.0000   0.0000

          k =-0.2083 0.7083 0.0417 (    79 PWs)   bands (ev):

     1.5112  10.3841  11.4444  12.4058  17.3592  19.7166

     occupation numbers 
     1.0000   0.0004   0.0000   0.0000   0.0000   0.0000

          k = 0.7083-0.2083 0.9583 (    81 PWs)   bands (ev):

     2.9462   9.0206  10.0702  11.1411  18.7151  20.8754

     occupation numbers 
     1.0001   0.0328   0.0013   0.0000   0.0000   0.0000

          k = 0.6250-0.1250 0.8750 (    79 PWs)   bands (ev):

     4.6959   6.7922   9.1340  11.2609  19.3395  23.3296

     occupation numbers 
     1.0250   0.8763   0.0244   0.0000   0.0000   0.0000

          k = 0.5417-0.0417 0.7917 (    80 PWs)   bands (ev):

     4.7208   6.6429   8.6245  11.8854  20.0619  24.3938

     occupation numbers 
     1.0262   0.9368   0.0835   0.0000   0.0000   0.0000

          k = 0.4583 0.0417 0.7083 (    81 PWs)   bands (ev):

     2.9526   7.6659   9.6716  12.8836  21.0140  22.7728

     occupation numbers 
     1.0001   0.4185   0.0050   0.0000   0.0000   0.0000

          k = 0.3750 0.1250 0.6250 (    79 PWs)   bands (ev):

     1.5140   7.8382  12.2016  14.2154  20.2449  22.3133

     occupation numbers 
     1.0000   0.3343   0.0000   0.0000   0.0000   0.0000

          k =-0.1250 0.7917 0.1250 (    80 PWs)   bands (ev):

     2.4681   9.6087  10.1490  13.7436  15.1445  19.1419

     occupation numbers 
     1.0000   0.0061   0.0009   0.0000   0.0000   0.0000

          k = 0.7917-0.1250 1.0417 (    82 PWs)   bands (ev):

     3.7558   8.1782   9.8358  11.8032  16.7954  19.2206

     occupation numbers 
     1.0023   0.1976   0.0029   0.0000   0.0000   0.0000

          k = 0.7083-0.0417 0.9583 (    79 PWs)   bands (ev):

     5.2679   7.1587   8.7071  10.7455  18.3829  20.6146

     occupation numbers 
     1.0608   0.6941   0.0696   0.0001   0.0000   0.0000

          k = 0.6250 0.0417 0.8750 (    79 PWs)   bands (ev):

     5.8337   6.6561   7.8204  11.1341  19.2334  23.2837

     occupation numbers 
     1.0829   0.9318   0.3426   0.0000   0.0000   0.0000

          k = 0.5417 0.1250 0.7917 (    81 PWs)   bands (ev):

     4.8281   5.5323   9.9391  12.0084  20.1588  23.3531

     occupation numbers 
     1.0320   1.0768   0.0020   0.0000   0.0000   0.0000

          k = 0.4583 0.2083 0.7083 (    80 PWs)   bands (ev):

     3.3116   5.4369  12.4636  13.2576  20.5589  21.4892

     occupation numbers 
     1.0005   1.0717   0.0000   0.0000   0.0000   0.0000

          k =-0.1250-1.0417 0.1250 (    79 PWs)   bands (ev):

     4.8105   6.7001   9.7545  13.4329  14.7934  18.8394

     occupation numbers 
     1.0310   0.9148   0.0038   0.0000   0.0000   0.0000

          k =-0.2083-0.9583 0.0417 (    79 PWs)   bands (ev):

     4.9252   6.8122   9.7205  11.6926  16.6850  19.1407

     occupation numbers 
     1.0378   0.8675   0.0042   0.0000   0.0000   0.0000

          k =-0.2917-0.8750-0.0417 (    82 PWs)   bands (ev):

     4.1081   8.4752   8.8541  10.8679  18.4929  20.6911

     occupation numbers 
     1.0064   0.1139   0.0496   0.0000   0.0000   0.0000

          k =-0.3750-0.7917-0.1250 (    81 PWs)   bands (ev):

     3.5407   7.0266  10.6450  11.5319  19.5472  23.3369

     occupation numbers 
     1.0011   0.7640   0.0001   0.0000   0.0000   0.0000

          k =-0.1250-0.8750 0.1250 (    78 PWs)   bands (ev):

     3.6419   8.0718   9.8770  13.5375  14.9097  18.9431

     occupation numbers 
     1.0016   0.2358   0.0025   0.0000   0.0000   0.0000

          k =-0.2083-0.7917 0.0417 (    81 PWs)   bands (ev):

     2.5884   9.7244  10.0957  12.0336  17.0204  19.4186

     occupation numbers 
     1.0000   0.0042   0.0011   0.0000   0.0000   0.0000

          k =-0.2917-0.7083-0.0417 (    80 PWs)   bands (ev):

     1.8731   9.3703  11.2515  11.9871  19.0466  21.1469

     occupation numbers 
     1.0000   0.0126   0.0000   0.0000   0.0000   0.0000

          k =-0.1250-0.7083 0.1250 (    79 PWs)   bands (ev):

     1.3894  10.3987  11.4051  14.0553  15.5001  19.4440

     occupation numbers 
     1.0000   0.0004   0.0000   0.0000   0.0000   0.0000

          k =-0.2083-0.6250 0.0417 (    79 PWs)   bands (ev):

     0.5406  10.8460  12.6886  13.3931  17.8051  20.0966

     occupation numbers 
     1.0000   0.0001   0.0000   0.0000   0.0000   0.0000

          k =-0.1250-0.5417 0.1250 (    79 PWs)   bands (ev):

    -0.4412  11.4420  14.9941  15.0801  16.5296  20.3189

     occupation numbers 
     1.0000   0.0000   0.0000   0.0000   0.0000   0.0000

          k =-0.2083 0.2083 0.2083 (    74 PWs)   bands (ev):

    -2.1727  12.6296  18.5701  18.5704  21.8896  22.9217

     occupation numbers 
     1.0000   0.0000   0.0000   0.0000   0.0000   0.0000

          k =-0.2917 0.2917 0.1250 (    75 PWs)   bands (ev):

    -1.6758  11.7120  15.8574  20.1374  21.0794  22.6333

     occupation numbers 
     1.0000   0.0000   0.0000   0.0000   0.0000   0.0000

          k =-0.3750 0.3750 0.0417 (    77 PWs)   bands (ev):

    -0.8084  10.9679  12.9434  19.0875  21.1651  22.3892

     occupation numbers 
     1.0000   0.0000   0.0000   0.0000   0.0000   0.0000

          k =-0.4583 0.4583-0.0417 (    77 PWs)   bands (ev):

     0.4209   9.3763  11.4016  17.6360  19.6754  23.5106

     occupation numbers 
     1.0000   0.0124   0.0000   0.0000   0.0000   0.0000

          k = 0.4583-0.4583 0.8750 (    81 PWs)   bands (ev):

     1.9962   6.9146  11.3301  16.4783  18.4225  23.6300

     occupation numbers 
     1.0000   0.8200   0.0000   0.0000   0.0000   0.0000

          k = 0.3750-0.3750 0.7917 (    79 PWs)   bands (ev):

     3.9017   4.6225  11.7445  15.6343  17.4948  24.0481

     occupation numbers 
     1.0036   1.0216   0.0000   0.0000   0.0000   0.0000

          k = 0.2917-0.2917 0.7083 (    80 PWs)   bands (ev):

     2.5954   6.1423  12.5205  15.1074  16.8726  24.7745

     occupation numbers 
     1.0000   1.0616   0.0000   0.0000   0.0000   0.0000

          k = 0.2083-0.2083 0.6250 (    77 PWs)   bands (ev):

     0.9094   8.6649  13.6389  14.8950  16.5844  22.5310

     occupation numbers 
     1.0000   0.0765   0.0000   0.0000   0.0000   0.0000

          k =-0.2083 0.3750 0.2083 (    74 PWs)   bands (ev):

    -1.2997  10.7241  16.7858  18.3629  19.4390  23.4340

     occupation numbers 
     1.0000   0.0001   0.0000   0.0000   0.0000   0.0000

          k =-0.2917 0.4583 0.1250 (    77 PWs)   bands (ev):

    -0.5614  10.0115  14.2775  17.5480  19.6577  22.8632

     occupation numbers 
     1.0000   0.0016   0.0000   0.0000   0.0000   0.0000

          k =-0.3750 0.5417 0.0417 (    78 PWs)   bands (ev):

     0.5422   9.4900  11.5009  15.9316  21.3787  21.8810

     occupation numbers 
     1.0000   0.0088   0.0000   0.0000   0.0000   0.0000

          k = 0.5417-0.3750 0.9583 (    80 PWs)   bands (ev):

     1.9958   8.1227  10.1431  14.6160  20.2409  23.1497

     occupation numbers 
     1.0000   0.2170   0.0010   0.0000   0.0000   0.0000

          k = 0.4583-0.2917 0.8750 (    82 PWs)   bands (ev):

     3.7846   5.8714  10.2970  13.6263  19.2525  23.6061

     occupation numbers 
     1.0025   1.0821   0.0005   0.0000   0.0000   0.0000

          k = 0.3750-0.2083 0.7917 (    80 PWs)   bands (ev):

     3.7775   5.9038  10.9352  12.9783  18.5538  24.0810

     occupation numbers 
     1.0025   1.0810   0.0000   0.0000   0.0000   0.0000

          k = 0.2917-0.1250 0.7083 (    81 PWs)   bands (ev):

     1.9927   8.2892  11.8993  12.7077  18.1302  22.2573

     occupation numbers 
     1.0000   0.1625   0.0000   0.0000   0.0000   0.0000

          k =-0.2083 0.5417 0.2083 (    75 PWs)   bands (ev):

     0.0571   9.2397  15.4191  15.5181  17.1356  22.9645

     occupation numbers 
     1.0000   0.0183   0.0000   0.0000   0.0000   0.0000

          k =-0.2917 0.6250 0.1250 (    80 PWs)   bands (ev):

     1.0268   8.7512  13.0270  13.8099  18.5592  22.5818

     occupation numbers 
     1.0000   0.0630   0.0000   0.0000   0.0000   0.0000

          k = 0.6250-0.2917 1.0417 (    82 PWs)   bands (ev):

     2.3530   8.4618  10.4490  12.3478  20.8331  22.3651

     occupation numbers 
     1.0000   0.1170   0.0003   0.0000   0.0000   0.0000

          k = 0.5417-0.2083 0.9583 (    81 PWs)   bands (ev):

     4.0136   7.3233   9.3017  11.2402  21.8420  22.5167

     occupation numbers 
     1.0049   0.6036   0.0153   0.0000   0.0000   0.0000

          k = 0.4583-0.1250 0.8750 (    78 PWs)   bands (ev):

     5.2710   6.0005   9.6382  10.5433  21.1603  23.1452

     occupation numbers 
     1.0610   1.0758   0.0055   0.0002   0.0000   0.0000

          k = 0.3750-0.0417 0.7917 (    82 PWs)   bands (ev):

     3.4206   8.1181   9.9962  10.7765  20.5148  22.3229

     occupation numbers 
     1.0008   0.2187   0.0016   0.0001   0.0000   0.0000

          k =-0.2083 0.7083 0.2083 (    78 PWs)   bands (ev):

     1.8765   8.2017  11.8469  14.4768  16.1300  22.1656

     occupation numbers 
     1.0000   0.1898   0.0000   0.0000   0.0000   0.0000

          k = 0.7083-0.2083 1.1250 (    81 PWs)   bands (ev):

     3.0653   7.9389  10.2491  12.3395  17.8056  21.9907

     occupation numbers 
     1.0002   0.2895   0.0006   0.0000   0.0000   0.0000

          k = 0.6250-0.1250 1.0417 (    80 PWs)   bands (ev):

     4.5791   7.8833   8.9413  10.0424  20.3020  22.2222

     occupation numbers 
     1.0197   0.3138   0.0401   0.0014   0.0000   0.0000

          k = 0.5417-0.0417 0.9583 (    83 PWs)   bands (ev):

     6.2865   6.9724   8.1407   9.1575  22.0763  23.4604

     occupation numbers 
     1.0381   0.7916   0.2106   0.0229   0.0000   0.0000

          k = 0.4583 0.0417 0.8750 (    80 PWs)   bands (ev):

     5.1611   7.0961   8.9571   9.7947  22.1471  22.8840

     occupation numbers 
     1.0534   0.7277   0.0385   0.0033   0.0000   0.0000

          k =-0.2083-1.1250 0.2083 (    76 PWs)   bands (ev):

     4.1142   7.5952   8.6070  13.9559  15.5620  21.7007

     occupation numbers 
     1.0065   0.4553   0.0867   0.0000   0.0000   0.0000

          k =-0.2917-1.0417 0.1250 (    78 PWs)   bands (ev):

     5.3814   7.2034   7.7190  11.9986  17.4811  21.7248

     occupation numbers 
     1.0683   0.6698   0.3917   0.0000   0.0000   0.0000

          k =-0.3750-0.9583 0.0417 (    79 PWs)   bands (ev):

     5.7231   7.5458   7.8662   9.8786  20.1927  22.1557

     occupation numbers 
     1.0829   0.4816   0.3215   0.0025   0.0000   0.0000

          k =-0.2083-0.9583 0.2083 (    79 PWs)   bands (ev):

     5.2666   7.0862   7.6313  13.8510  15.4391  21.5935

     occupation numbers 
     1.0607   0.7329   0.4363   0.0000   0.0000   0.0000

          k =-0.2917-0.8750 0.1250 (    78 PWs)   bands (ev):

     4.2305   7.6880   8.7056  12.1137  17.5912  21.8155

     occupation numbers 
     1.0088   0.4072   0.0699   0.0000   0.0000   0.0000

          k =-0.2083-0.7917 0.2083 (    78 PWs)   bands (ev):

     2.9494   7.8502  10.1582  14.1639  15.7865  21.8842

     occupation numbers 
     1.0001   0.3288   0.0009   0.0000   0.0000   0.0000

          k =-0.2917 0.2917 0.2917 (    74 PWs)   bands (ev):

    -1.0519   9.6059  18.2697  18.2697  21.5037  21.5039

     occupation numbers 
     1.0000   0.0061   0.0000   0.0000   0.0000   0.0000

          k =-0.3750 0.3750 0.2083 (    76 PWs)   bands (ev):

    -0.4362   8.7973  15.6385  19.3415  20.2561  21.2137

     occupation numbers 
     1.0000   0.0567   0.0000   0.0000   0.0000   0.0000

          k =-0.4583 0.4583 0.1250 (    79 PWs)   bands (ev):

     0.5412   8.2982  12.6730  17.7411  19.7443  22.3264

     occupation numbers 
     1.0000   0.1599   0.0000   0.0000   0.0000   0.0000

          k = 0.4583-0.4583 1.0417 (    79 PWs)   bands (ev):

     1.8750   8.0099  10.0375  16.3727  18.3400  24.8272

     occupation numbers 
     1.0000   0.2600   0.0014   0.0000   0.0000   0.0000

          k = 0.3750-0.3750 0.9583 (    82 PWs)   bands (ev):

     3.5496   6.8696   8.8697  15.3189  17.1693  26.3347

     occupation numbers 
     1.0012   0.8413   0.0477   0.0000   0.0000   0.0000

          k = 0.2917-0.2917 0.8750 (    78 PWs)   bands (ev):

     4.8046   5.5685   9.2755  14.5840  16.3259  24.6628

     occupation numbers 
     1.0307   1.0784   0.0165   0.0000   0.0000   0.0000

          k =-0.2917 0.4583 0.2917 (    74 PWs)   bands (ev):

     0.0577   7.8888  16.6889  18.0342  18.3184  22.4859

     occupation numbers 
     1.0000   0.3114   0.0000   0.0000   0.0000   0.0000

          k =-0.3750 0.5417 0.2083 (    78 PWs)   bands (ev):

     0.9089   7.2978  14.2553  16.2494  19.7082  21.7824

     occupation numbers 
     1.0000   0.6178   0.0000   0.0000   0.0000   0.0000

          k = 0.5417-0.3750 1.1250 (    82 PWs)   bands (ev):

     2.1140   7.0292  11.4330  14.7246  20.3134  22.1181

     occupation numbers 
     1.0000   0.7627   0.0000   0.0000   0.0000   0.0000

          k = 0.4583-0.2917 1.0417 (    82 PWs)   bands (ev):

     3.6658   6.9822   8.9828  13.5137  19.1528  24.6884

     occupation numbers 
     1.0017   0.7866   0.0361   0.0000   0.0000   0.0000

          k = 0.3750-0.2083 0.9583 (    80 PWs)   bands (ev):

     5.5252   6.0806   8.0484  12.6337  18.2418  24.6158

     occupation numbers 
     1.0765   1.0688   0.2448   0.0000   0.0000   0.0000

          k =-0.2917 0.6250 0.2917 (    79 PWs)   bands (ev):

     1.6359   6.6080  14.2984  15.5277  17.3001  23.8978

     occupation numbers 
     1.0000   0.9494   0.0000   0.0000   0.0000   0.0000

          k = 0.6250-0.2917 1.2083 (    80 PWs)   bands (ev):

     2.7151   6.2508  12.5803  13.3428  18.8633  23.2661

     occupation numbers 
     1.0000   1.0448   0.0000   0.0000   0.0000   0.0000

          k = 0.5417-0.2083 1.1250 (    81 PWs)   bands (ev):

     4.1325   6.2202  10.5571  11.4025  21.2839  22.2271

     occupation numbers 
     1.0068   1.0501   0.0002   0.0000   0.0000   0.0000

          k = 0.4583-0.1250 1.0417 (    79 PWs)   bands (ev):

     5.8482   6.4217   8.3694  10.3727  21.0706  24.1005

     occupation numbers 
     1.0826   1.0071   0.1400   0.0004   0.0000   0.0000

          k =-0.2917-1.2083 0.2917 (    79 PWs)   bands (ev):

     3.6603   5.7949  10.8387  14.7930  16.5459  24.7885

     occupation numbers 
     1.0017   1.0833   0.0001   0.0000   0.0000   0.0000

          k =-0.3750-1.1250 0.2083 (    81 PWs)   bands (ev):

     4.9201   5.6756   9.3780  12.7478  18.3455  24.5503

     occupation numbers 
     1.0375   1.0821   0.0123   0.0000   0.0000   0.0000

          k =-0.2917-1.0417 0.2917 (    81 PWs)   bands (ev):

     5.4131   5.9682   7.9335  14.4779  16.2086  24.5836

     occupation numbers 
     1.0703   1.0779   0.2918   0.0000   0.0000   0.0000

          k =-0.3750 0.3750 0.3750 (    74 PWs)   bands (ev):

     0.4249   6.8543  18.2763  18.2764  20.2548  20.2549

     occupation numbers 
     1.0000   0.8484   0.0000   0.0000   0.0000   0.0000

          k =-0.4583 0.4583 0.2917 (    76 PWs)   bands (ev):

     1.1537   6.1520  15.7510  18.2681  20.0192  20.2827

     occupation numbers 
     1.0000   1.0603   0.0000   0.0000   0.0000   0.0000

          k = 0.4583-0.4583 1.2083 (    79 PWs)   bands (ev):

     2.2407   5.7869  12.8607  16.6901  18.6149  22.5343

     occupation numbers 
     1.0000   1.0833   0.0000   0.0000   0.0000   0.0000

          k = 0.3750-0.3750 1.1250 (    79 PWs)   bands (ev):

     3.6703   5.7576  10.1958  15.4239  17.2857  25.1469

     occupation numbers 
     1.0018   1.0833   0.0008   0.0000   0.0000   0.0000

          k =-0.3750 0.5417 0.3750 (    77 PWs)   bands (ev):

     1.7596   5.3344  16.9060  16.9547  18.5492  21.4327

     occupation numbers 
     1.0000   1.0653   0.0000   0.0000   0.0000   0.0000

          k = 0.5417-0.3750 1.2917 (    79 PWs)   bands (ev):

     2.7194   4.8592  14.5622  15.2777  20.0083  20.8705

     occupation numbers 
     1.0000   1.0338   0.0000   0.0000   0.0000   0.0000

          k = 0.4583-0.2917 1.2083 (    80 PWs)   bands (ev):

     4.0167   4.7393  11.8407  13.8530  19.4488  22.5746

     occupation numbers 
     1.0050   1.0272   0.0000   0.0000   0.0000   0.0000

          k =-0.3750-1.2917 0.3750 (    80 PWs)   bands (ev):

     3.5467   4.2753  13.4083  15.9508  17.7933  23.0603

     occupation numbers 
     1.0012   1.0098   0.0000   0.0000   0.0000   0.0000

          k =-0.4583 0.4583 0.4583 (    76 PWs)   bands (ev):

     2.2452   4.3946  18.5662  18.5662  19.3328  19.3328

     occupation numbers 
     1.0000   1.0131   0.0000   0.0000   0.0000   0.0000

          k = 0.4583-0.4583 1.3750 (    78 PWs)   bands (ev):

     3.0782   3.8026  16.1883  17.4339  19.1222  20.6930

     occupation numbers 
     1.0002   1.0026   0.0000   0.0000   0.0000   0.0000

     the Fermi energy is     7.7011 ev

!    total energy              =      -4.18251637 Ry
     estimated scf accuracy    <       0.00000035 Ry
     smearing contrib. (-TS)   =      -0.00125966 Ry
     internal energy E=F+TS    =      -4.18125671 Ry

     The total energy is F=E-TS. E is the sum of the following terms:
     one-electron contribution =       2.80879425 Ry
     hartree contribution      =       0.00907055 Ry
     xc contribution           =      -1.60516607 Ry
     ewald contribution        =      -5.39395543 Ry

     convergence has been achieved in   3 iterations

     Writing output data file ./tmp/Al_exc1.save/

     init_run     :      0.46s CPU      0.05s WALL (       1 calls)
     electrons    :      6.37s CPU      0.55s WALL (       1 calls)

     Called by init_run:
     wfcinit      :      0.46s CPU      0.04s WALL (       1 calls)
     wfcinit:atom :      0.05s CPU      0.00s WALL (     182 calls)
     wfcinit:wfcr :      0.35s CPU      0.03s WALL (     182 calls)
     potinit      :      0.00s CPU      0.00s WALL (       1 calls)
     hinit0       :      0.00s CPU      0.00s WALL (       1 calls)

     Called by electrons:
     c_bands      :      5.74s CPU      0.49s WALL (       4 calls)
     sum_band     :      0.62s CPU      0.06s WALL (       4 calls)
     v_of_rho     :      0.00s CPU      0.00s WALL (       4 calls)
     v_h          :      0.00s CPU      0.00s WALL (       4 calls)
     v_xc         :      0.00s CPU      0.00s WALL (       4 calls)
     mix_rho      :      0.00s CPU      0.00s WALL (       4 calls)

     Called by c_bands:
     init_us_2    :      0.25s CPU      0.02s WALL (    1638 calls)
     cegterg      :      5.54s CPU      0.47s WALL (     728 calls)

     Called by sum_band:
     sum_band:wei :      0.07s CPU      0.01s WALL (       4 calls)
     sum_band:loo :      0.55s CPU      0.05s WALL (       4 calls)
     sum_band:buf :      0.00s CPU      0.00s WALL (     728 calls)
     sum_band:ini :      0.13s CPU      0.01s WALL (     728 calls)

     Called by *egterg:
     cdiaghg      :      2.19s CPU      0.19s WALL (    2364 calls)
     cegterg:over :      0.10s CPU      0.01s WALL (    1818 calls)
     cegterg:upda :      0.05s CPU      0.01s WALL (    1818 calls)
     cegterg:last :      0.07s CPU      0.01s WALL (    1381 calls)
     h_psi        :      3.01s CPU      0.26s WALL (    2728 calls)
     g_psi        :      0.05s CPU      0.00s WALL (    1818 calls)

     Called by h_psi:
     h_psi:calbec :      0.16s CPU      0.01s WALL (    2728 calls)
     vloc_psi     :      2.59s CPU      0.22s WALL (    2728 calls)
     add_vuspsi   :      0.13s CPU      0.01s WALL (    2728 calls)

     General routines
     calbec       :      0.07s CPU      0.01s WALL (    2728 calls)
     fft          :      0.00s CPU      0.00s WALL (      12 calls)
     ffts         :      0.00s CPU      0.00s WALL (       4 calls)
     fftw         :      2.03s CPU      0.18s WALL (   29730 calls)


     PWSCF        :      6.86s CPU      0.62s WALL


   This run was terminated on:  13:14:39   6Mar2023            

=------------------------------------------------------------------------------=
   JOB DONE.
=------------------------------------------------------------------------------=
