
     Program PWSCF v.6.6 starts on  6Mar2023 at 13:14:31 

     This program is part of the open-source Quantum ESPRESSO suite
     for quantum simulation of materials; please cite
         "P. Giannozzi et al., J. Phys.:Condens. Matter 21 395502 (2009);
         "P. Giannozzi et al., J. Phys.:Condens. Matter 29 465901 (2017);
          URL http://www.quantum-espresso.org", 
     in publications or presentations arising from this work. More details at
     http://www.quantum-espresso.org/quote

     Serial version
     Fft bands division:     nmany     =       1
     Waiting for input...
     Reading input from standard input

     Current dimensions of program PWSCF are:
     Max number of different atomic species (ntypx) = 10
     Max number of k-points (npk) =  40000
     Max angular momentum in pseudopotentials (lmaxx) =  3

     G-vector sticks info
     --------------------
     sticks:   dense  smooth     PW     G-vecs:    dense   smooth      PW
     Sum          91      91     43                  609      609     181



     bravais-lattice index     =            2
     lattice parameter (alat)  =       7.6500  a.u.
     unit-cell volume          =     111.9243 (a.u.)^3
     number of atoms/cell      =            1
     number of atomic types    =            1
     number of electrons       =         3.00
     number of Kohn-Sham states=            6
     kinetic-energy cutoff     =      12.0000  Ry
     charge density cutoff     =      48.0000  Ry
     convergence threshold     =      1.0E-06
     mixing beta               =       0.7000
     number of iterations used =            8  plain     mixing
     Exchange-correlation= SLA PZ NOGX NOGC
                           (   1   1   0   0   0   0   0)

     celldm(1)=   7.650000  celldm(2)=   0.000000  celldm(3)=   0.000000
     celldm(4)=   0.000000  celldm(5)=   0.000000  celldm(6)=   0.000000

     crystal axes: (cart. coord. in units of alat)
               a(1) = (  -0.500000   0.000000   0.500000 )  
               a(2) = (   0.000000   0.500000   0.500000 )  
               a(3) = (  -0.500000   0.500000   0.000000 )  

     reciprocal axes: (cart. coord. in units 2 pi/alat)
               b(1) = ( -1.000000 -1.000000  1.000000 )  
               b(2) = (  1.000000  1.000000  1.000000 )  
               b(3) = ( -1.000000  1.000000 -1.000000 )  


     PseudoPot. # 1 for Al read from file:
     ../pseudo/Al.pz-vbc.UPF
     MD5 check sum: f06ceae8da0fe5c02c98e3688433298c
     Pseudo is Norm-conserving, Zval =  3.0
     Generated by new atomic code, or converted to UPF format
     Using radial grid of  171 points,  2 beta functions with: 
                l(1) =   0
                l(2) =   1

     atomic species   valence    mass     pseudopotential
        Al             3.00    26.98000     Al( 1.00)

     48 Sym. Ops., with inversion, found


                                    s                        frac. trans.

      isym =  1     identity                                     

 cryst.   s( 1) = (     1          0          0      )
                  (     0          1          0      )
                  (     0          0          1      )

 cart.    s( 1) = (  1.0000000  0.0000000  0.0000000 )
                  (  0.0000000  1.0000000  0.0000000 )
                  (  0.0000000  0.0000000  1.0000000 )


      isym =  2     180 deg rotation - cart. axis [0,0,1]        

 cryst.   s( 2) = (     0          1         -1      )
                  (     1          0         -1      )
                  (     0          0         -1      )

 cart.    s( 2) = ( -1.0000000  0.0000000  0.0000000 )
                  (  0.0000000 -1.0000000  0.0000000 )
                  (  0.0000000  0.0000000  1.0000000 )


      isym =  3     180 deg rotation - cart. axis [0,1,0]        

 cryst.   s( 3) = (    -1          0          0      )
                  (    -1          0          1      )
                  (    -1          1          0      )

 cart.    s( 3) = ( -1.0000000  0.0000000  0.0000000 )
                  (  0.0000000  1.0000000  0.0000000 )
                  (  0.0000000  0.0000000 -1.0000000 )


      isym =  4     180 deg rotation - cart. axis [1,0,0]        

 cryst.   s( 4) = (     0         -1          1      )
                  (     0         -1          0      )
                  (     1         -1          0      )

 cart.    s( 4) = (  1.0000000  0.0000000  0.0000000 )
                  (  0.0000000 -1.0000000  0.0000000 )
                  (  0.0000000  0.0000000 -1.0000000 )


      isym =  5     180 deg rotation - cart. axis [1,1,0]        

 cryst.   s( 5) = (     0         -1          0      )
                  (    -1          0          0      )
                  (     0          0         -1      )

 cart.    s( 5) = (  0.0000000  1.0000000  0.0000000 )
                  (  1.0000000  0.0000000  0.0000000 )
                  (  0.0000000  0.0000000 -1.0000000 )


      isym =  6     180 deg rotation - cart. axis [1,-1,0]       

 cryst.   s( 6) = (    -1          0          1      )
                  (     0         -1          1      )
                  (     0          0          1      )

 cart.    s( 6) = (  0.0000000 -1.0000000  0.0000000 )
                  ( -1.0000000  0.0000000  0.0000000 )
                  (  0.0000000  0.0000000 -1.0000000 )


      isym =  7      90 deg rotation - cart. axis [0,0,-1]       

 cryst.   s( 7) = (     0          1          0      )
                  (     0          1         -1      )
                  (    -1          1          0      )

 cart.    s( 7) = (  0.0000000  1.0000000  0.0000000 )
                  ( -1.0000000  0.0000000  0.0000000 )
                  (  0.0000000  0.0000000  1.0000000 )


      isym =  8      90 deg rotation - cart. axis [0,0,1]        

 cryst.   s( 8) = (     1          0         -1      )
                  (     1          0          0      )
                  (     1         -1          0      )

 cart.    s( 8) = (  0.0000000 -1.0000000  0.0000000 )
                  (  1.0000000  0.0000000  0.0000000 )
                  (  0.0000000  0.0000000  1.0000000 )


      isym =  9     180 deg rotation - cart. axis [1,0,1]        

 cryst.   s( 9) = (    -1          0          0      )
                  (     0          0         -1      )
                  (     0         -1          0      )

 cart.    s( 9) = (  0.0000000  0.0000000  1.0000000 )
                  (  0.0000000 -1.0000000  0.0000000 )
                  (  1.0000000  0.0000000  0.0000000 )


      isym = 10     180 deg rotation - cart. axis [-1,0,1]       

 cryst.   s(10) = (     1          0          0      )
                  (     1         -1          0      )
                  (     1          0         -1      )

 cart.    s(10) = (  0.0000000  0.0000000 -1.0000000 )
                  (  0.0000000 -1.0000000  0.0000000 )
                  ( -1.0000000  0.0000000  0.0000000 )


      isym = 11      90 deg rotation - cart. axis [0,1,0]        

 cryst.   s(11) = (     0          1         -1      )
                  (    -1          1          0      )
                  (     0          1          0      )

 cart.    s(11) = (  0.0000000  0.0000000  1.0000000 )
                  (  0.0000000  1.0000000  0.0000000 )
                  ( -1.0000000  0.0000000  0.0000000 )


      isym = 12      90 deg rotation - cart. axis [0,-1,0]       

 cryst.   s(12) = (     0         -1          1      )
                  (     0          0          1      )
                  (    -1          0          1      )

 cart.    s(12) = (  0.0000000  0.0000000 -1.0000000 )
                  (  0.0000000  1.0000000  0.0000000 )
                  (  1.0000000  0.0000000  0.0000000 )


      isym = 13     180 deg rotation - cart. axis [0,1,1]        

 cryst.   s(13) = (    -1          1          0      )
                  (     0          1          0      )
                  (     0          1         -1      )

 cart.    s(13) = ( -1.0000000  0.0000000  0.0000000 )
                  (  0.0000000  0.0000000  1.0000000 )
                  (  0.0000000  1.0000000  0.0000000 )


      isym = 14     180 deg rotation - cart. axis [0,1,-1]       

 cryst.   s(14) = (     0          0         -1      )
                  (     0         -1          0      )
                  (    -1          0          0      )

 cart.    s(14) = ( -1.0000000  0.0000000  0.0000000 )
                  (  0.0000000  0.0000000 -1.0000000 )
                  (  0.0000000 -1.0000000  0.0000000 )


      isym = 15      90 deg rotation - cart. axis [-1,0,0]       

 cryst.   s(15) = (     0          0          1      )
                  (    -1          0          1      )
                  (     0         -1          1      )

 cart.    s(15) = (  1.0000000  0.0000000  0.0000000 )
                  (  0.0000000  0.0000000  1.0000000 )
                  (  0.0000000 -1.0000000  0.0000000 )


      isym = 16      90 deg rotation - cart. axis [1,0,0]        

 cryst.   s(16) = (     1         -1          0      )
                  (     1          0         -1      )
                  (     1          0          0      )

 cart.    s(16) = (  1.0000000  0.0000000  0.0000000 )
                  (  0.0000000  0.0000000 -1.0000000 )
                  (  0.0000000  1.0000000  0.0000000 )


      isym = 17     120 deg rotation - cart. axis [-1,-1,-1]     

 cryst.   s(17) = (    -1          0          1      )
                  (    -1          1          0      )
                  (    -1          0          0      )

 cart.    s(17) = (  0.0000000  1.0000000  0.0000000 )
                  (  0.0000000  0.0000000  1.0000000 )
                  (  1.0000000  0.0000000  0.0000000 )


      isym = 18     120 deg rotation - cart. axis [-1,1,1]       

 cryst.   s(18) = (     0          1          0      )
                  (     0          0          1      )
                  (     1          0          0      )

 cart.    s(18) = (  0.0000000 -1.0000000  0.0000000 )
                  (  0.0000000  0.0000000  1.0000000 )
                  ( -1.0000000  0.0000000  0.0000000 )


      isym = 19     120 deg rotation - cart. axis [1,1,-1]       

 cryst.   s(19) = (     1          0         -1      )
                  (     0          0         -1      )
                  (     0          1         -1      )

 cart.    s(19) = (  0.0000000  1.0000000  0.0000000 )
                  (  0.0000000  0.0000000 -1.0000000 )
                  ( -1.0000000  0.0000000  0.0000000 )


      isym = 20     120 deg rotation - cart. axis [1,-1,1]       

 cryst.   s(20) = (     0         -1          0      )
                  (     1         -1          0      )
                  (     0         -1          1      )

 cart.    s(20) = (  0.0000000 -1.0000000  0.0000000 )
                  (  0.0000000  0.0000000 -1.0000000 )
                  (  1.0000000  0.0000000  0.0000000 )


      isym = 21     120 deg rotation - cart. axis [1,1,1]        

 cryst.   s(21) = (     0          0         -1      )
                  (     0          1         -1      )
                  (     1          0         -1      )

 cart.    s(21) = (  0.0000000  0.0000000  1.0000000 )
                  (  1.0000000  0.0000000  0.0000000 )
                  (  0.0000000  1.0000000  0.0000000 )


      isym = 22     120 deg rotation - cart. axis [-1,1,-1]      

 cryst.   s(22) = (    -1          1          0      )
                  (    -1          0          0      )
                  (    -1          0          1      )

 cart.    s(22) = (  0.0000000  0.0000000  1.0000000 )
                  ( -1.0000000  0.0000000  0.0000000 )
                  (  0.0000000 -1.0000000  0.0000000 )


      isym = 23     120 deg rotation - cart. axis [1,-1,-1]      

 cryst.   s(23) = (     0          0          1      )
                  (     1          0          0      )
                  (     0          1          0      )

 cart.    s(23) = (  0.0000000  0.0000000 -1.0000000 )
                  ( -1.0000000  0.0000000  0.0000000 )
                  (  0.0000000  1.0000000  0.0000000 )


      isym = 24     120 deg rotation - cart. axis [-1,-1,1]      

 cryst.   s(24) = (     1         -1          0      )
                  (     0         -1          1      )
                  (     0         -1          0      )

 cart.    s(24) = (  0.0000000  0.0000000 -1.0000000 )
                  (  1.0000000  0.0000000  0.0000000 )
                  (  0.0000000 -1.0000000  0.0000000 )


      isym = 25     inversion                                    

 cryst.   s(25) = (    -1          0          0      )
                  (     0         -1          0      )
                  (     0          0         -1      )

 cart.    s(25) = ( -1.0000000  0.0000000  0.0000000 )
                  (  0.0000000 -1.0000000  0.0000000 )
                  (  0.0000000  0.0000000 -1.0000000 )


      isym = 26     inv. 180 deg rotation - cart. axis [0,0,1]   

 cryst.   s(26) = (     0         -1          1      )
                  (    -1          0          1      )
                  (     0          0          1      )

 cart.    s(26) = (  1.0000000  0.0000000  0.0000000 )
                  (  0.0000000  1.0000000  0.0000000 )
                  (  0.0000000  0.0000000 -1.0000000 )


      isym = 27     inv. 180 deg rotation - cart. axis [0,1,0]   

 cryst.   s(27) = (     1          0          0      )
                  (     1          0         -1      )
                  (     1         -1          0      )

 cart.    s(27) = (  1.0000000  0.0000000  0.0000000 )
                  (  0.0000000 -1.0000000  0.0000000 )
                  (  0.0000000  0.0000000  1.0000000 )


      isym = 28     inv. 180 deg rotation - cart. axis [1,0,0]   

 cryst.   s(28) = (     0          1         -1      )
                  (     0          1          0      )
                  (    -1          1          0      )

 cart.    s(28) = ( -1.0000000  0.0000000  0.0000000 )
                  (  0.0000000  1.0000000  0.0000000 )
                  (  0.0000000  0.0000000  1.0000000 )


      isym = 29     inv. 180 deg rotation - cart. axis [1,1,0]   

 cryst.   s(29) = (     0          1          0      )
                  (     1          0          0      )
                  (     0          0          1      )

 cart.    s(29) = (  0.0000000 -1.0000000  0.0000000 )
                  ( -1.0000000  0.0000000  0.0000000 )
                  (  0.0000000  0.0000000  1.0000000 )


      isym = 30     inv. 180 deg rotation - cart. axis [1,-1,0]  

 cryst.   s(30) = (     1          0         -1      )
                  (     0          1         -1      )
                  (     0          0         -1      )

 cart.    s(30) = (  0.0000000  1.0000000  0.0000000 )
                  (  1.0000000  0.0000000  0.0000000 )
                  (  0.0000000  0.0000000  1.0000000 )


      isym = 31     inv.  90 deg rotation - cart. axis [0,0,-1]  

 cryst.   s(31) = (     0         -1          0      )
                  (     0         -1          1      )
                  (     1         -1          0      )

 cart.    s(31) = (  0.0000000 -1.0000000  0.0000000 )
                  (  1.0000000  0.0000000  0.0000000 )
                  (  0.0000000  0.0000000 -1.0000000 )


      isym = 32     inv.  90 deg rotation - cart. axis [0,0,1]   

 cryst.   s(32) = (    -1          0          1      )
                  (    -1          0          0      )
                  (    -1          1          0      )

 cart.    s(32) = (  0.0000000  1.0000000  0.0000000 )
                  ( -1.0000000  0.0000000  0.0000000 )
                  (  0.0000000  0.0000000 -1.0000000 )


      isym = 33     inv. 180 deg rotation - cart. axis [1,0,1]   

 cryst.   s(33) = (     1          0          0      )
                  (     0          0          1      )
                  (     0          1          0      )

 cart.    s(33) = (  0.0000000  0.0000000 -1.0000000 )
                  (  0.0000000  1.0000000  0.0000000 )
                  ( -1.0000000  0.0000000  0.0000000 )


      isym = 34     inv. 180 deg rotation - cart. axis [-1,0,1]  

 cryst.   s(34) = (    -1          0          0      )
                  (    -1          1          0      )
                  (    -1          0          1      )

 cart.    s(34) = (  0.0000000  0.0000000  1.0000000 )
                  (  0.0000000  1.0000000  0.0000000 )
                  (  1.0000000  0.0000000  0.0000000 )


      isym = 35     inv.  90 deg rotation - cart. axis [0,1,0]   

 cryst.   s(35) = (     0         -1          1      )
                  (     1         -1          0      )
                  (     0         -1          0      )

 cart.    s(35) = (  0.0000000  0.0000000 -1.0000000 )
                  (  0.0000000 -1.0000000  0.0000000 )
                  (  1.0000000  0.0000000  0.0000000 )


      isym = 36     inv.  90 deg rotation - cart. axis [0,-1,0]  

 cryst.   s(36) = (     0          1         -1      )
                  (     0          0         -1      )
                  (     1          0         -1      )

 cart.    s(36) = (  0.0000000  0.0000000  1.0000000 )
                  (  0.0000000 -1.0000000  0.0000000 )
                  ( -1.0000000  0.0000000  0.0000000 )


      isym = 37     inv. 180 deg rotation - cart. axis [0,1,1]   

 cryst.   s(37) = (     1         -1          0      )
                  (     0         -1          0      )
                  (     0         -1          1      )

 cart.    s(37) = (  1.0000000  0.0000000  0.0000000 )
                  (  0.0000000  0.0000000 -1.0000000 )
                  (  0.0000000 -1.0000000  0.0000000 )


      isym = 38     inv. 180 deg rotation - cart. axis [0,1,-1]  

 cryst.   s(38) = (     0          0          1      )
                  (     0          1          0      )
                  (     1          0          0      )

 cart.    s(38) = (  1.0000000  0.0000000  0.0000000 )
                  (  0.0000000  0.0000000  1.0000000 )
                  (  0.0000000  1.0000000  0.0000000 )


      isym = 39     inv.  90 deg rotation - cart. axis [-1,0,0]  

 cryst.   s(39) = (     0          0         -1      )
                  (     1          0         -1      )
                  (     0          1         -1      )

 cart.    s(39) = ( -1.0000000  0.0000000  0.0000000 )
                  (  0.0000000  0.0000000 -1.0000000 )
                  (  0.0000000  1.0000000  0.0000000 )


      isym = 40     inv.  90 deg rotation - cart. axis [1,0,0]   

 cryst.   s(40) = (    -1          1          0      )
                  (    -1          0          1      )
                  (    -1          0          0      )

 cart.    s(40) = ( -1.0000000  0.0000000  0.0000000 )
                  (  0.0000000  0.0000000  1.0000000 )
                  (  0.0000000 -1.0000000  0.0000000 )


      isym = 41     inv. 120 deg rotation - cart. axis [-1,-1,-1]

 cryst.   s(41) = (     1          0         -1      )
                  (     1         -1          0      )
                  (     1          0          0      )

 cart.    s(41) = (  0.0000000 -1.0000000  0.0000000 )
                  (  0.0000000  0.0000000 -1.0000000 )
                  ( -1.0000000  0.0000000  0.0000000 )


      isym = 42     inv. 120 deg rotation - cart. axis [-1,1,1]  

 cryst.   s(42) = (     0         -1          0      )
                  (     0          0         -1      )
                  (    -1          0          0      )

 cart.    s(42) = (  0.0000000  1.0000000  0.0000000 )
                  (  0.0000000  0.0000000 -1.0000000 )
                  (  1.0000000  0.0000000  0.0000000 )


      isym = 43     inv. 120 deg rotation - cart. axis [1,1,-1]  

 cryst.   s(43) = (    -1          0          1      )
                  (     0          0          1      )
                  (     0         -1          1      )

 cart.    s(43) = (  0.0000000 -1.0000000  0.0000000 )
                  (  0.0000000  0.0000000  1.0000000 )
                  (  1.0000000  0.0000000  0.0000000 )


      isym = 44     inv. 120 deg rotation - cart. axis [1,-1,1]  

 cryst.   s(44) = (     0          1          0      )
                  (    -1          1          0      )
                  (     0          1         -1      )

 cart.    s(44) = (  0.0000000  1.0000000  0.0000000 )
                  (  0.0000000  0.0000000  1.0000000 )
                  ( -1.0000000  0.0000000  0.0000000 )


      isym = 45     inv. 120 deg rotation - cart. axis [1,1,1]   

 cryst.   s(45) = (     0          0          1      )
                  (     0         -1          1      )
                  (    -1          0          1      )

 cart.    s(45) = (  0.0000000  0.0000000 -1.0000000 )
                  ( -1.0000000  0.0000000  0.0000000 )
                  (  0.0000000 -1.0000000  0.0000000 )


      isym = 46     inv. 120 deg rotation - cart. axis [-1,1,-1] 

 cryst.   s(46) = (     1         -1          0      )
                  (     1          0          0      )
                  (     1          0         -1      )

 cart.    s(46) = (  0.0000000  0.0000000 -1.0000000 )
                  (  1.0000000  0.0000000  0.0000000 )
                  (  0.0000000  1.0000000  0.0000000 )


      isym = 47     inv. 120 deg rotation - cart. axis [1,-1,-1] 

 cryst.   s(47) = (     0          0         -1      )
                  (    -1          0          0      )
                  (     0         -1          0      )

 cart.    s(47) = (  0.0000000  0.0000000  1.0000000 )
                  (  1.0000000  0.0000000  0.0000000 )
                  (  0.0000000 -1.0000000  0.0000000 )


      isym = 48     inv. 120 deg rotation - cart. axis [-1,-1,1] 

 cryst.   s(48) = (    -1          1          0      )
                  (     0          1         -1      )
                  (     0          1          0      )

 cart.    s(48) = (  0.0000000  0.0000000  1.0000000 )
                  ( -1.0000000  0.0000000  0.0000000 )
                  (  0.0000000  1.0000000  0.0000000 )


     point group O_h (m-3m) 
     there are 10 classes
     the character table:

       E     8C3   3C2   6C4   6C2'  i     8S6   3s_h  6S4   6s_d 
A_1g   1.00  1.00  1.00  1.00  1.00  1.00  1.00  1.00  1.00  1.00
A_2g   1.00  1.00  1.00 -1.00 -1.00  1.00  1.00  1.00 -1.00 -1.00
E_g    2.00 -1.00  2.00  0.00  0.00  2.00 -1.00  2.00  0.00  0.00
T_1g   3.00  0.00 -1.00  1.00 -1.00  3.00  0.00 -1.00  1.00 -1.00
T_2g   3.00  0.00 -1.00 -1.00  1.00  3.00  0.00 -1.00 -1.00  1.00
A_1u   1.00  1.00  1.00  1.00  1.00 -1.00 -1.00 -1.00 -1.00 -1.00
A_2u   1.00  1.00  1.00 -1.00 -1.00 -1.00 -1.00 -1.00  1.00  1.00
E_u    2.00 -1.00  2.00  0.00  0.00 -2.00  1.00 -2.00  0.00  0.00
T_1u   3.00  0.00 -1.00  1.00 -1.00 -3.00  0.00  1.00 -1.00  1.00
T_2u   3.00  0.00 -1.00 -1.00  1.00 -3.00  0.00  1.00  1.00 -1.00

     the symmetry operations in each class and the name of the first element:

     E        1
          identity                                               
     8C3     17   19   20   18   24   21   22   23
          120 deg rotation - cart. axis [-1,-1,-1]               
     3C2      2    4    3
          180 deg rotation - cart. axis [0,0,1]                  
     6C4      7    8   15   16   12   11
           90 deg rotation - cart. axis [0,0,-1]                 
     6C2'     5    6   14   13   10    9
          180 deg rotation - cart. axis [1,1,0]                  
     i       25
          inversion                                              
     8S6     41   43   44   42   48   45   46   47
          inv. 120 deg rotation - cart. axis [-1,-1,-1]          
     3s_h    26   28   27
          inv. 180 deg rotation - cart. axis [0,0,1]             
     6S4     31   32   39   40   36   35
          inv.  90 deg rotation - cart. axis [0,0,-1]            
     6s_d    29   30   38   37   34   33
          inv. 180 deg rotation - cart. axis [1,1,0]             

   Cartesian axes

     site n.     atom                  positions (alat units)
         1           Al  tau(   1) = (   0.0000000   0.0000000   0.0000000  )

   Crystallographic axes

     site n.     atom                  positions (cryst. coord.)
         1           Al  tau(   1) = (  0.0000000  0.0000000  0.0000000  )

     number of k points=   182  Marzari-Vanderbilt smearing, width (Ry)=  0.0400
                       cart. coord. in units 2pi/alat
        k(    1) = (  -0.0416667   0.0416667   0.0416667), wk =   0.0023148
        k(    2) = (  -0.1250000   0.1250000  -0.0416667), wk =   0.0069444
        k(    3) = (  -0.2083333   0.2083333  -0.1250000), wk =   0.0069444
        k(    4) = (  -0.2916667   0.2916667  -0.2083333), wk =   0.0069444
        k(    5) = (  -0.3750000   0.3750000  -0.2916667), wk =   0.0069444
        k(    6) = (  -0.4583333   0.4583333  -0.3750000), wk =   0.0069444
        k(    7) = (   0.4583333  -0.4583333   0.5416667), wk =   0.0069444
        k(    8) = (   0.3750000  -0.3750000   0.4583333), wk =   0.0069444
        k(    9) = (   0.2916667  -0.2916667   0.3750000), wk =   0.0069444
        k(   10) = (   0.2083333  -0.2083333   0.2916667), wk =   0.0069444
        k(   11) = (   0.1250000  -0.1250000   0.2083333), wk =   0.0069444
        k(   12) = (   0.0416667  -0.0416667   0.1250000), wk =   0.0069444
        k(   13) = (  -0.0416667   0.2083333   0.0416667), wk =   0.0069444
        k(   14) = (  -0.1250000   0.2916667  -0.0416667), wk =   0.0138889
        k(   15) = (  -0.2083333   0.3750000  -0.1250000), wk =   0.0138889
        k(   16) = (  -0.2916667   0.4583333  -0.2083333), wk =   0.0138889
        k(   17) = (  -0.3750000   0.5416667  -0.2916667), wk =   0.0138889
        k(   18) = (   0.5416667  -0.3750000   0.6250000), wk =   0.0138889
        k(   19) = (   0.4583333  -0.2916667   0.5416667), wk =   0.0138889
        k(   20) = (   0.3750000  -0.2083333   0.4583333), wk =   0.0138889
        k(   21) = (   0.2916667  -0.1250000   0.3750000), wk =   0.0138889
        k(   22) = (   0.2083333  -0.0416667   0.2916667), wk =   0.0138889
        k(   23) = (   0.1250000   0.0416667   0.2083333), wk =   0.0138889
        k(   24) = (  -0.0416667   0.3750000   0.0416667), wk =   0.0069444
        k(   25) = (  -0.1250000   0.4583333  -0.0416667), wk =   0.0138889
        k(   26) = (  -0.2083333   0.5416667  -0.1250000), wk =   0.0138889
        k(   27) = (  -0.2916667   0.6250000  -0.2083333), wk =   0.0138889
        k(   28) = (   0.6250000  -0.2916667   0.7083333), wk =   0.0138889
        k(   29) = (   0.5416667  -0.2083333   0.6250000), wk =   0.0138889
        k(   30) = (   0.4583333  -0.1250000   0.5416667), wk =   0.0138889
        k(   31) = (   0.3750000  -0.0416667   0.4583333), wk =   0.0138889
        k(   32) = (   0.2916667   0.0416667   0.3750000), wk =   0.0138889
        k(   33) = (   0.2083333   0.1250000   0.2916667), wk =   0.0138889
        k(   34) = (  -0.0416667   0.5416667   0.0416667), wk =   0.0069444
        k(   35) = (  -0.1250000   0.6250000  -0.0416667), wk =   0.0138889
        k(   36) = (  -0.2083333   0.7083333  -0.1250000), wk =   0.0138889
        k(   37) = (   0.7083333  -0.2083333   0.7916667), wk =   0.0138889
        k(   38) = (   0.6250000  -0.1250000   0.7083333), wk =   0.0138889
        k(   39) = (   0.5416667  -0.0416667   0.6250000), wk =   0.0138889
        k(   40) = (   0.4583333   0.0416667   0.5416667), wk =   0.0138889
        k(   41) = (   0.3750000   0.1250000   0.4583333), wk =   0.0138889
        k(   42) = (   0.2916667   0.2083333   0.3750000), wk =   0.0138889
        k(   43) = (  -0.0416667   0.7083333   0.0416667), wk =   0.0069444
        k(   44) = (  -0.1250000   0.7916667  -0.0416667), wk =   0.0138889
        k(   45) = (   0.7916667  -0.1250000   0.8750000), wk =   0.0138889
        k(   46) = (   0.7083333  -0.0416667   0.7916667), wk =   0.0138889
        k(   47) = (   0.6250000   0.0416667   0.7083333), wk =   0.0138889
        k(   48) = (   0.5416667   0.1250000   0.6250000), wk =   0.0138889
        k(   49) = (   0.4583333   0.2083333   0.5416667), wk =   0.0138889
        k(   50) = (   0.3750000   0.2916667   0.4583333), wk =   0.0138889
        k(   51) = (  -0.0416667   0.8750000   0.0416667), wk =   0.0069444
        k(   52) = (   0.8750000  -0.0416667   0.9583333), wk =   0.0138889
        k(   53) = (   0.7916667   0.0416667   0.8750000), wk =   0.0138889
        k(   54) = (   0.7083333   0.1250000   0.7916667), wk =   0.0138889
        k(   55) = (   0.6250000   0.2083333   0.7083333), wk =   0.0138889
        k(   56) = (   0.5416667   0.2916667   0.6250000), wk =   0.0138889
        k(   57) = (   0.4583333   0.3750000   0.5416667), wk =   0.0138889
        k(   58) = (  -0.0416667  -0.9583333   0.0416667), wk =   0.0069444
        k(   59) = (  -0.1250000  -0.8750000  -0.0416667), wk =   0.0138889
        k(   60) = (  -0.2083333  -0.7916667  -0.1250000), wk =   0.0138889
        k(   61) = (  -0.2916667  -0.7083333  -0.2083333), wk =   0.0138889
        k(   62) = (  -0.3750000  -0.6250000  -0.2916667), wk =   0.0138889
        k(   63) = (  -0.0416667  -0.7916667   0.0416667), wk =   0.0069444
        k(   64) = (  -0.1250000  -0.7083333  -0.0416667), wk =   0.0138889
        k(   65) = (  -0.2083333  -0.6250000  -0.1250000), wk =   0.0138889
        k(   66) = (  -0.2916667  -0.5416667  -0.2083333), wk =   0.0138889
        k(   67) = (  -0.0416667  -0.6250000   0.0416667), wk =   0.0069444
        k(   68) = (  -0.1250000  -0.5416667  -0.0416667), wk =   0.0138889
        k(   69) = (  -0.2083333  -0.4583333  -0.1250000), wk =   0.0138889
        k(   70) = (  -0.0416667  -0.4583333   0.0416667), wk =   0.0069444
        k(   71) = (  -0.1250000  -0.3750000  -0.0416667), wk =   0.0138889
        k(   72) = (  -0.0416667  -0.2916667   0.0416667), wk =   0.0069444
        k(   73) = (  -0.1250000   0.1250000   0.1250000), wk =   0.0023148
        k(   74) = (  -0.2083333   0.2083333   0.0416667), wk =   0.0069444
        k(   75) = (  -0.2916667   0.2916667  -0.0416667), wk =   0.0069444
        k(   76) = (  -0.3750000   0.3750000  -0.1250000), wk =   0.0069444
        k(   77) = (  -0.4583333   0.4583333  -0.2083333), wk =   0.0069444
        k(   78) = (   0.4583333  -0.4583333   0.7083333), wk =   0.0069444
        k(   79) = (   0.3750000  -0.3750000   0.6250000), wk =   0.0069444
        k(   80) = (   0.2916667  -0.2916667   0.5416667), wk =   0.0069444
        k(   81) = (   0.2083333  -0.2083333   0.4583333), wk =   0.0069444
        k(   82) = (   0.1250000  -0.1250000   0.3750000), wk =   0.0069444
        k(   83) = (  -0.1250000   0.2916667   0.1250000), wk =   0.0069444
        k(   84) = (  -0.2083333   0.3750000   0.0416667), wk =   0.0138889
        k(   85) = (  -0.2916667   0.4583333  -0.0416667), wk =   0.0138889
        k(   86) = (  -0.3750000   0.5416667  -0.1250000), wk =   0.0138889
        k(   87) = (   0.5416667  -0.3750000   0.7916667), wk =   0.0138889
        k(   88) = (   0.4583333  -0.2916667   0.7083333), wk =   0.0138889
        k(   89) = (   0.3750000  -0.2083333   0.6250000), wk =   0.0138889
        k(   90) = (   0.2916667  -0.1250000   0.5416667), wk =   0.0138889
        k(   91) = (   0.2083333  -0.0416667   0.4583333), wk =   0.0138889
        k(   92) = (  -0.1250000   0.4583333   0.1250000), wk =   0.0069444
        k(   93) = (  -0.2083333   0.5416667   0.0416667), wk =   0.0138889
        k(   94) = (  -0.2916667   0.6250000  -0.0416667), wk =   0.0138889
        k(   95) = (   0.6250000  -0.2916667   0.8750000), wk =   0.0138889
        k(   96) = (   0.5416667  -0.2083333   0.7916667), wk =   0.0138889
        k(   97) = (   0.4583333  -0.1250000   0.7083333), wk =   0.0138889
        k(   98) = (   0.3750000  -0.0416667   0.6250000), wk =   0.0138889
        k(   99) = (   0.2916667   0.0416667   0.5416667), wk =   0.0138889
        k(  100) = (  -0.1250000   0.6250000   0.1250000), wk =   0.0069444
        k(  101) = (  -0.2083333   0.7083333   0.0416667), wk =   0.0138889
        k(  102) = (   0.7083333  -0.2083333   0.9583333), wk =   0.0138889
        k(  103) = (   0.6250000  -0.1250000   0.8750000), wk =   0.0138889
        k(  104) = (   0.5416667  -0.0416667   0.7916667), wk =   0.0138889
        k(  105) = (   0.4583333   0.0416667   0.7083333), wk =   0.0138889
        k(  106) = (   0.3750000   0.1250000   0.6250000), wk =   0.0138889
        k(  107) = (  -0.1250000   0.7916667   0.1250000), wk =   0.0069444
        k(  108) = (   0.7916667  -0.1250000   1.0416667), wk =   0.0138889
        k(  109) = (   0.7083333  -0.0416667   0.9583333), wk =   0.0138889
        k(  110) = (   0.6250000   0.0416667   0.8750000), wk =   0.0138889
        k(  111) = (   0.5416667   0.1250000   0.7916667), wk =   0.0138889
        k(  112) = (   0.4583333   0.2083333   0.7083333), wk =   0.0138889
        k(  113) = (  -0.1250000  -1.0416667   0.1250000), wk =   0.0069444
        k(  114) = (  -0.2083333  -0.9583333   0.0416667), wk =   0.0138889
        k(  115) = (  -0.2916667  -0.8750000  -0.0416667), wk =   0.0138889
        k(  116) = (  -0.3750000  -0.7916667  -0.1250000), wk =   0.0138889
        k(  117) = (  -0.1250000  -0.8750000   0.1250000), wk =   0.0069444
        k(  118) = (  -0.2083333  -0.7916667   0.0416667), wk =   0.0138889
        k(  119) = (  -0.2916667  -0.7083333  -0.0416667), wk =   0.0138889
        k(  120) = (  -0.1250000  -0.7083333   0.1250000), wk =   0.0069444
        k(  121) = (  -0.2083333  -0.6250000   0.0416667), wk =   0.0138889
        k(  122) = (  -0.1250000  -0.5416667   0.1250000), wk =   0.0069444
        k(  123) = (  -0.2083333   0.2083333   0.2083333), wk =   0.0023148
        k(  124) = (  -0.2916667   0.2916667   0.1250000), wk =   0.0069444
        k(  125) = (  -0.3750000   0.3750000   0.0416667), wk =   0.0069444
        k(  126) = (  -0.4583333   0.4583333  -0.0416667), wk =   0.0069444
        k(  127) = (   0.4583333  -0.4583333   0.8750000), wk =   0.0069444
        k(  128) = (   0.3750000  -0.3750000   0.7916667), wk =   0.0069444
        k(  129) = (   0.2916667  -0.2916667   0.7083333), wk =   0.0069444
        k(  130) = (   0.2083333  -0.2083333   0.6250000), wk =   0.0069444
        k(  131) = (  -0.2083333   0.3750000   0.2083333), wk =   0.0069444
        k(  132) = (  -0.2916667   0.4583333   0.1250000), wk =   0.0138889
        k(  133) = (  -0.3750000   0.5416667   0.0416667), wk =   0.0138889
        k(  134) = (   0.5416667  -0.3750000   0.9583333), wk =   0.0138889
        k(  135) = (   0.4583333  -0.2916667   0.8750000), wk =   0.0138889
        k(  136) = (   0.3750000  -0.2083333   0.7916667), wk =   0.0138889
        k(  137) = (   0.2916667  -0.1250000   0.7083333), wk =   0.0138889
        k(  138) = (  -0.2083333   0.5416667   0.2083333), wk =   0.0069444
        k(  139) = (  -0.2916667   0.6250000   0.1250000), wk =   0.0138889
        k(  140) = (   0.6250000  -0.2916667   1.0416667), wk =   0.0138889
        k(  141) = (   0.5416667  -0.2083333   0.9583333), wk =   0.0138889
        k(  142) = (   0.4583333  -0.1250000   0.8750000), wk =   0.0138889
        k(  143) = (   0.3750000  -0.0416667   0.7916667), wk =   0.0138889
        k(  144) = (  -0.2083333   0.7083333   0.2083333), wk =   0.0069444
        k(  145) = (   0.7083333  -0.2083333   1.1250000), wk =   0.0138889
        k(  146) = (   0.6250000  -0.1250000   1.0416667), wk =   0.0138889
        k(  147) = (   0.5416667  -0.0416667   0.9583333), wk =   0.0138889
        k(  148) = (   0.4583333   0.0416667   0.8750000), wk =   0.0138889
        k(  149) = (  -0.2083333  -1.1250000   0.2083333), wk =   0.0069444
        k(  150) = (  -0.2916667  -1.0416667   0.1250000), wk =   0.0138889
        k(  151) = (  -0.3750000  -0.9583333   0.0416667), wk =   0.0138889
        k(  152) = (  -0.2083333  -0.9583333   0.2083333), wk =   0.0069444
        k(  153) = (  -0.2916667  -0.8750000   0.1250000), wk =   0.0138889
        k(  154) = (  -0.2083333  -0.7916667   0.2083333), wk =   0.0069444
        k(  155) = (  -0.2916667   0.2916667   0.2916667), wk =   0.0023148
        k(  156) = (  -0.3750000   0.3750000   0.2083333), wk =   0.0069444
        k(  157) = (  -0.4583333   0.4583333   0.1250000), wk =   0.0069444
        k(  158) = (   0.4583333  -0.4583333   1.0416667), wk =   0.0069444
        k(  159) = (   0.3750000  -0.3750000   0.9583333), wk =   0.0069444
        k(  160) = (   0.2916667  -0.2916667   0.8750000), wk =   0.0069444
        k(  161) = (  -0.2916667   0.4583333   0.2916667), wk =   0.0069444
        k(  162) = (  -0.3750000   0.5416667   0.2083333), wk =   0.0138889
        k(  163) = (   0.5416667  -0.3750000   1.1250000), wk =   0.0138889
        k(  164) = (   0.4583333  -0.2916667   1.0416667), wk =   0.0138889
        k(  165) = (   0.3750000  -0.2083333   0.9583333), wk =   0.0138889
        k(  166) = (  -0.2916667   0.6250000   0.2916667), wk =   0.0069444
        k(  167) = (   0.6250000  -0.2916667   1.2083333), wk =   0.0138889
        k(  168) = (   0.5416667  -0.2083333   1.1250000), wk =   0.0138889
        k(  169) = (   0.4583333  -0.1250000   1.0416667), wk =   0.0138889
        k(  170) = (  -0.2916667  -1.2083333   0.2916667), wk =   0.0069444
        k(  171) = (  -0.3750000  -1.1250000   0.2083333), wk =   0.0138889
        k(  172) = (  -0.2916667  -1.0416667   0.2916667), wk =   0.0069444
        k(  173) = (  -0.3750000   0.3750000   0.3750000), wk =   0.0023148
        k(  174) = (  -0.4583333   0.4583333   0.2916667), wk =   0.0069444
        k(  175) = (   0.4583333  -0.4583333   1.2083333), wk =   0.0069444
        k(  176) = (   0.3750000  -0.3750000   1.1250000), wk =   0.0069444
        k(  177) = (  -0.3750000   0.5416667   0.3750000), wk =   0.0069444
        k(  178) = (   0.5416667  -0.3750000   1.2916667), wk =   0.0138889
        k(  179) = (   0.4583333  -0.2916667   1.2083333), wk =   0.0138889
        k(  180) = (  -0.3750000  -1.2916667   0.3750000), wk =   0.0069444
        k(  181) = (  -0.4583333   0.4583333   0.4583333), wk =   0.0023148
        k(  182) = (   0.4583333  -0.4583333   1.3750000), wk =   0.0069444

                       cryst. coord.
        k(    1) = (   0.0416667   0.0416667   0.0416667), wk =   0.0023148
        k(    2) = (   0.0416667   0.0416667   0.1250000), wk =   0.0069444
        k(    3) = (   0.0416667   0.0416667   0.2083333), wk =   0.0069444
        k(    4) = (   0.0416667   0.0416667   0.2916667), wk =   0.0069444
        k(    5) = (   0.0416667   0.0416667   0.3750000), wk =   0.0069444
        k(    6) = (   0.0416667   0.0416667   0.4583333), wk =   0.0069444
        k(    7) = (   0.0416667   0.0416667  -0.4583333), wk =   0.0069444
        k(    8) = (   0.0416667   0.0416667  -0.3750000), wk =   0.0069444
        k(    9) = (   0.0416667   0.0416667  -0.2916667), wk =   0.0069444
        k(   10) = (   0.0416667   0.0416667  -0.2083333), wk =   0.0069444
        k(   11) = (   0.0416667   0.0416667  -0.1250000), wk =   0.0069444
        k(   12) = (   0.0416667   0.0416667  -0.0416667), wk =   0.0069444
        k(   13) = (   0.0416667   0.1250000   0.1250000), wk =   0.0069444
        k(   14) = (   0.0416667   0.1250000   0.2083333), wk =   0.0138889
        k(   15) = (   0.0416667   0.1250000   0.2916667), wk =   0.0138889
        k(   16) = (   0.0416667   0.1250000   0.3750000), wk =   0.0138889
        k(   17) = (   0.0416667   0.1250000   0.4583333), wk =   0.0138889
        k(   18) = (   0.0416667   0.1250000  -0.4583333), wk =   0.0138889
        k(   19) = (   0.0416667   0.1250000  -0.3750000), wk =   0.0138889
        k(   20) = (   0.0416667   0.1250000  -0.2916667), wk =   0.0138889
        k(   21) = (   0.0416667   0.1250000  -0.2083333), wk =   0.0138889
        k(   22) = (   0.0416667   0.1250000  -0.1250000), wk =   0.0138889
        k(   23) = (   0.0416667   0.1250000  -0.0416667), wk =   0.0138889
        k(   24) = (   0.0416667   0.2083333   0.2083333), wk =   0.0069444
        k(   25) = (   0.0416667   0.2083333   0.2916667), wk =   0.0138889
        k(   26) = (   0.0416667   0.2083333   0.3750000), wk =   0.0138889
        k(   27) = (   0.0416667   0.2083333   0.4583333), wk =   0.0138889
        k(   28) = (   0.0416667   0.2083333  -0.4583333), wk =   0.0138889
        k(   29) = (   0.0416667   0.2083333  -0.3750000), wk =   0.0138889
        k(   30) = (   0.0416667   0.2083333  -0.2916667), wk =   0.0138889
        k(   31) = (   0.0416667   0.2083333  -0.2083333), wk =   0.0138889
        k(   32) = (   0.0416667   0.2083333  -0.1250000), wk =   0.0138889
        k(   33) = (   0.0416667   0.2083333  -0.0416667), wk =   0.0138889
        k(   34) = (   0.0416667   0.2916667   0.2916667), wk =   0.0069444
        k(   35) = (   0.0416667   0.2916667   0.3750000), wk =   0.0138889
        k(   36) = (   0.0416667   0.2916667   0.4583333), wk =   0.0138889
        k(   37) = (   0.0416667   0.2916667  -0.4583333), wk =   0.0138889
        k(   38) = (   0.0416667   0.2916667  -0.3750000), wk =   0.0138889
        k(   39) = (   0.0416667   0.2916667  -0.2916667), wk =   0.0138889
        k(   40) = (   0.0416667   0.2916667  -0.2083333), wk =   0.0138889
        k(   41) = (   0.0416667   0.2916667  -0.1250000), wk =   0.0138889
        k(   42) = (   0.0416667   0.2916667  -0.0416667), wk =   0.0138889
        k(   43) = (   0.0416667   0.3750000   0.3750000), wk =   0.0069444
        k(   44) = (   0.0416667   0.3750000   0.4583333), wk =   0.0138889
        k(   45) = (   0.0416667   0.3750000  -0.4583333), wk =   0.0138889
        k(   46) = (   0.0416667   0.3750000  -0.3750000), wk =   0.0138889
        k(   47) = (   0.0416667   0.3750000  -0.2916667), wk =   0.0138889
        k(   48) = (   0.0416667   0.3750000  -0.2083333), wk =   0.0138889
        k(   49) = (   0.0416667   0.3750000  -0.1250000), wk =   0.0138889
        k(   50) = (   0.0416667   0.3750000  -0.0416667), wk =   0.0138889
        k(   51) = (   0.0416667   0.4583333   0.4583333), wk =   0.0069444
        k(   52) = (   0.0416667   0.4583333  -0.4583333), wk =   0.0138889
        k(   53) = (   0.0416667   0.4583333  -0.3750000), wk =   0.0138889
        k(   54) = (   0.0416667   0.4583333  -0.2916667), wk =   0.0138889
        k(   55) = (   0.0416667   0.4583333  -0.2083333), wk =   0.0138889
        k(   56) = (   0.0416667   0.4583333  -0.1250000), wk =   0.0138889
        k(   57) = (   0.0416667   0.4583333  -0.0416667), wk =   0.0138889
        k(   58) = (   0.0416667  -0.4583333  -0.4583333), wk =   0.0069444
        k(   59) = (   0.0416667  -0.4583333  -0.3750000), wk =   0.0138889
        k(   60) = (   0.0416667  -0.4583333  -0.2916667), wk =   0.0138889
        k(   61) = (   0.0416667  -0.4583333  -0.2083333), wk =   0.0138889
        k(   62) = (   0.0416667  -0.4583333  -0.1250000), wk =   0.0138889
        k(   63) = (   0.0416667  -0.3750000  -0.3750000), wk =   0.0069444
        k(   64) = (   0.0416667  -0.3750000  -0.2916667), wk =   0.0138889
        k(   65) = (   0.0416667  -0.3750000  -0.2083333), wk =   0.0138889
        k(   66) = (   0.0416667  -0.3750000  -0.1250000), wk =   0.0138889
        k(   67) = (   0.0416667  -0.2916667  -0.2916667), wk =   0.0069444
        k(   68) = (   0.0416667  -0.2916667  -0.2083333), wk =   0.0138889
        k(   69) = (   0.0416667  -0.2916667  -0.1250000), wk =   0.0138889
        k(   70) = (   0.0416667  -0.2083333  -0.2083333), wk =   0.0069444
        k(   71) = (   0.0416667  -0.2083333  -0.1250000), wk =   0.0138889
        k(   72) = (   0.0416667  -0.1250000  -0.1250000), wk =   0.0069444
        k(   73) = (   0.1250000   0.1250000   0.1250000), wk =   0.0023148
        k(   74) = (   0.1250000   0.1250000   0.2083333), wk =   0.0069444
        k(   75) = (   0.1250000   0.1250000   0.2916667), wk =   0.0069444
        k(   76) = (   0.1250000   0.1250000   0.3750000), wk =   0.0069444
        k(   77) = (   0.1250000   0.1250000   0.4583333), wk =   0.0069444
        k(   78) = (   0.1250000   0.1250000  -0.4583333), wk =   0.0069444
        k(   79) = (   0.1250000   0.1250000  -0.3750000), wk =   0.0069444
        k(   80) = (   0.1250000   0.1250000  -0.2916667), wk =   0.0069444
        k(   81) = (   0.1250000   0.1250000  -0.2083333), wk =   0.0069444
        k(   82) = (   0.1250000   0.1250000  -0.1250000), wk =   0.0069444
        k(   83) = (   0.1250000   0.2083333   0.2083333), wk =   0.0069444
        k(   84) = (   0.1250000   0.2083333   0.2916667), wk =   0.0138889
        k(   85) = (   0.1250000   0.2083333   0.3750000), wk =   0.0138889
        k(   86) = (   0.1250000   0.2083333   0.4583333), wk =   0.0138889
        k(   87) = (   0.1250000   0.2083333  -0.4583333), wk =   0.0138889
        k(   88) = (   0.1250000   0.2083333  -0.3750000), wk =   0.0138889
        k(   89) = (   0.1250000   0.2083333  -0.2916667), wk =   0.0138889
        k(   90) = (   0.1250000   0.2083333  -0.2083333), wk =   0.0138889
        k(   91) = (   0.1250000   0.2083333  -0.1250000), wk =   0.0138889
        k(   92) = (   0.1250000   0.2916667   0.2916667), wk =   0.0069444
        k(   93) = (   0.1250000   0.2916667   0.3750000), wk =   0.0138889
        k(   94) = (   0.1250000   0.2916667   0.4583333), wk =   0.0138889
        k(   95) = (   0.1250000   0.2916667  -0.4583333), wk =   0.0138889
        k(   96) = (   0.1250000   0.2916667  -0.3750000), wk =   0.0138889
        k(   97) = (   0.1250000   0.2916667  -0.2916667), wk =   0.0138889
        k(   98) = (   0.1250000   0.2916667  -0.2083333), wk =   0.0138889
        k(   99) = (   0.1250000   0.2916667  -0.1250000), wk =   0.0138889
        k(  100) = (   0.1250000   0.3750000   0.3750000), wk =   0.0069444
        k(  101) = (   0.1250000   0.3750000   0.4583333), wk =   0.0138889
        k(  102) = (   0.1250000   0.3750000  -0.4583333), wk =   0.0138889
        k(  103) = (   0.1250000   0.3750000  -0.3750000), wk =   0.0138889
        k(  104) = (   0.1250000   0.3750000  -0.2916667), wk =   0.0138889
        k(  105) = (   0.1250000   0.3750000  -0.2083333), wk =   0.0138889
        k(  106) = (   0.1250000   0.3750000  -0.1250000), wk =   0.0138889
        k(  107) = (   0.1250000   0.4583333   0.4583333), wk =   0.0069444
        k(  108) = (   0.1250000   0.4583333  -0.4583333), wk =   0.0138889
        k(  109) = (   0.1250000   0.4583333  -0.3750000), wk =   0.0138889
        k(  110) = (   0.1250000   0.4583333  -0.2916667), wk =   0.0138889
        k(  111) = (   0.1250000   0.4583333  -0.2083333), wk =   0.0138889
        k(  112) = (   0.1250000   0.4583333  -0.1250000), wk =   0.0138889
        k(  113) = (   0.1250000  -0.4583333  -0.4583333), wk =   0.0069444
        k(  114) = (   0.1250000  -0.4583333  -0.3750000), wk =   0.0138889
        k(  115) = (   0.1250000  -0.4583333  -0.2916667), wk =   0.0138889
        k(  116) = (   0.1250000  -0.4583333  -0.2083333), wk =   0.0138889
        k(  117) = (   0.1250000  -0.3750000  -0.3750000), wk =   0.0069444
        k(  118) = (   0.1250000  -0.3750000  -0.2916667), wk =   0.0138889
        k(  119) = (   0.1250000  -0.3750000  -0.2083333), wk =   0.0138889
        k(  120) = (   0.1250000  -0.2916667  -0.2916667), wk =   0.0069444
        k(  121) = (   0.1250000  -0.2916667  -0.2083333), wk =   0.0138889
        k(  122) = (   0.1250000  -0.2083333  -0.2083333), wk =   0.0069444
        k(  123) = (   0.2083333   0.2083333   0.2083333), wk =   0.0023148
        k(  124) = (   0.2083333   0.2083333   0.2916667), wk =   0.0069444
        k(  125) = (   0.2083333   0.2083333   0.3750000), wk =   0.0069444
        k(  126) = (   0.2083333   0.2083333   0.4583333), wk =   0.0069444
        k(  127) = (   0.2083333   0.2083333  -0.4583333), wk =   0.0069444
        k(  128) = (   0.2083333   0.2083333  -0.3750000), wk =   0.0069444
        k(  129) = (   0.2083333   0.2083333  -0.2916667), wk =   0.0069444
        k(  130) = (   0.2083333   0.2083333  -0.2083333), wk =   0.0069444
        k(  131) = (   0.2083333   0.2916667   0.2916667), wk =   0.0069444
        k(  132) = (   0.2083333   0.2916667   0.3750000), wk =   0.0138889
        k(  133) = (   0.2083333   0.2916667   0.4583333), wk =   0.0138889
        k(  134) = (   0.2083333   0.2916667  -0.4583333), wk =   0.0138889
        k(  135) = (   0.2083333   0.2916667  -0.3750000), wk =   0.0138889
        k(  136) = (   0.2083333   0.2916667  -0.2916667), wk =   0.0138889
        k(  137) = (   0.2083333   0.2916667  -0.2083333), wk =   0.0138889
        k(  138) = (   0.2083333   0.3750000   0.3750000), wk =   0.0069444
        k(  139) = (   0.2083333   0.3750000   0.4583333), wk =   0.0138889
        k(  140) = (   0.2083333   0.3750000  -0.4583333), wk =   0.0138889
        k(  141) = (   0.2083333   0.3750000  -0.3750000), wk =   0.0138889
        k(  142) = (   0.2083333   0.3750000  -0.2916667), wk =   0.0138889
        k(  143) = (   0.2083333   0.3750000  -0.2083333), wk =   0.0138889
        k(  144) = (   0.2083333   0.4583333   0.4583333), wk =   0.0069444
        k(  145) = (   0.2083333   0.4583333  -0.4583333), wk =   0.0138889
        k(  146) = (   0.2083333   0.4583333  -0.3750000), wk =   0.0138889
        k(  147) = (   0.2083333   0.4583333  -0.2916667), wk =   0.0138889
        k(  148) = (   0.2083333   0.4583333  -0.2083333), wk =   0.0138889
        k(  149) = (   0.2083333  -0.4583333  -0.4583333), wk =   0.0069444
        k(  150) = (   0.2083333  -0.4583333  -0.3750000), wk =   0.0138889
        k(  151) = (   0.2083333  -0.4583333  -0.2916667), wk =   0.0138889
        k(  152) = (   0.2083333  -0.3750000  -0.3750000), wk =   0.0069444
        k(  153) = (   0.2083333  -0.3750000  -0.2916667), wk =   0.0138889
        k(  154) = (   0.2083333  -0.2916667  -0.2916667), wk =   0.0069444
        k(  155) = (   0.2916667   0.2916667   0.2916667), wk =   0.0023148
        k(  156) = (   0.2916667   0.2916667   0.3750000), wk =   0.0069444
        k(  157) = (   0.2916667   0.2916667   0.4583333), wk =   0.0069444
        k(  158) = (   0.2916667   0.2916667  -0.4583333), wk =   0.0069444
        k(  159) = (   0.2916667   0.2916667  -0.3750000), wk =   0.0069444
        k(  160) = (   0.2916667   0.2916667  -0.2916667), wk =   0.0069444
        k(  161) = (   0.2916667   0.3750000   0.3750000), wk =   0.0069444
        k(  162) = (   0.2916667   0.3750000   0.4583333), wk =   0.0138889
        k(  163) = (   0.2916667   0.3750000  -0.4583333), wk =   0.0138889
        k(  164) = (   0.2916667   0.3750000  -0.3750000), wk =   0.0138889
        k(  165) = (   0.2916667   0.3750000  -0.2916667), wk =   0.0138889
        k(  166) = (   0.2916667   0.4583333   0.4583333), wk =   0.0069444
        k(  167) = (   0.2916667   0.4583333  -0.4583333), wk =   0.0138889
        k(  168) = (   0.2916667   0.4583333  -0.3750000), wk =   0.0138889
        k(  169) = (   0.2916667   0.4583333  -0.2916667), wk =   0.0138889
        k(  170) = (   0.2916667  -0.4583333  -0.4583333), wk =   0.0069444
        k(  171) = (   0.2916667  -0.4583333  -0.3750000), wk =   0.0138889
        k(  172) = (   0.2916667  -0.3750000  -0.3750000), wk =   0.0069444
        k(  173) = (   0.3750000   0.3750000   0.3750000), wk =   0.0023148
        k(  174) = (   0.3750000   0.3750000   0.4583333), wk =   0.0069444
        k(  175) = (   0.3750000   0.3750000  -0.4583333), wk =   0.0069444
        k(  176) = (   0.3750000   0.3750000  -0.3750000), wk =   0.0069444
        k(  177) = (   0.3750000   0.4583333   0.4583333), wk =   0.0069444
        k(  178) = (   0.3750000   0.4583333  -0.4583333), wk =   0.0138889
        k(  179) = (   0.3750000   0.4583333  -0.3750000), wk =   0.0138889
        k(  180) = (   0.3750000  -0.4583333  -0.4583333), wk =   0.0069444
        k(  181) = (   0.4583333   0.4583333   0.4583333), wk =   0.0023148
        k(  182) = (   0.4583333   0.4583333  -0.4583333), wk =   0.0069444

     Dense  grid:      609 G-vectors     FFT dimensions: (  12,  12,  12)

     Dynamical RAM for                 wfc:       0.01 MB

     Dynamical RAM for     wfc (w. buffer):       1.32 MB

     Dynamical RAM for           str. fact:       0.01 MB

     Dynamical RAM for           local pot:       0.00 MB

     Dynamical RAM for          nlocal pot:       0.00 MB

     Dynamical RAM for                qrad:       0.05 MB

     Dynamical RAM for          rho,v,vnew:       0.07 MB

     Dynamical RAM for               rhoin:       0.02 MB

     Dynamical RAM for            rho*nmix:       0.15 MB

     Dynamical RAM for           G-vectors:       0.04 MB

     Dynamical RAM for          h,s,v(r/c):       0.01 MB

     Dynamical RAM for          <psi|beta>:       0.00 MB

     Dynamical RAM for                 psi:       0.01 MB

     Dynamical RAM for                hpsi:       0.01 MB

     Dynamical RAM for      wfcinit/wfcrot:       0.02 MB

     Estimated static dynamical RAM per process >       1.75 MB

     Estimated max dynamical RAM per process >       1.78 MB

     Initial potential from superposition of free atoms

     starting charge    2.99794, renormalised to    3.00000
     Starting wfcs are    4 randomized atomic wfcs +    2 random wfcs

     total cpu time spent up to now is        0.1 secs

     Self-consistent Calculation

     iteration #  1     ecut=    12.00 Ry     beta= 0.70
     Davidson diagonalization with overlap
     ethr =  1.00E-02,  avg # of iterations =  5.2

     Threshold (ethr) on eigenvalues was too large:
     Diagonalizing with lowered threshold

     Davidson diagonalization with overlap
     ethr =  2.05E-04,  avg # of iterations =  1.6

     total cpu time spent up to now is        0.4 secs

     total energy              =      -4.18212383 Ry
     estimated scf accuracy    <       0.00612417 Ry

     iteration #  2     ecut=    12.00 Ry     beta= 0.70
     Davidson diagonalization with overlap
     ethr =  2.04E-04,  avg # of iterations =  1.0

     total cpu time spent up to now is        0.5 secs

     total energy              =      -4.18211305 Ry
     estimated scf accuracy    <       0.00046380 Ry

     iteration #  3     ecut=    12.00 Ry     beta= 0.70
     Davidson diagonalization with overlap
     ethr =  1.55E-05,  avg # of iterations =  2.2

     total cpu time spent up to now is        0.6 secs

     End of self-consistent calculation

          k =-0.0417 0.0417 0.0417 (    65 PWs)   bands (ev):

    -3.3019  19.1755  20.0177  20.0180  21.5800  21.5841

     occupation numbers 
     1.0000   0.0000   0.0000   0.0000   0.0000   0.0000

          k =-0.1250 0.1250-0.0417 (    69 PWs)   bands (ev):

    -3.0528  16.9787  18.3218  20.2465  21.7222  22.3308

     occupation numbers 
     1.0000   0.0000   0.0000   0.0000   0.0000   0.0000

          k =-0.2083 0.2083-0.1250 (    73 PWs)   bands (ev):

    -2.4267  13.7182  17.5936  19.6021  22.2786  22.4994

     occupation numbers 
     1.0000   0.0000   0.0000   0.0000   0.0000   0.0000

          k =-0.2917 0.2917-0.2083 (    74 PWs)   bands (ev):

    -1.4242  10.6186  17.1821  19.1997  21.1965  22.1022

     occupation numbers 
     1.0000   0.0000   0.0000   0.0000   0.0000   0.0000

          k =-0.3750 0.3750-0.2917 (    74 PWs)   bands (ev):

    -0.0652   7.7764  17.0877  19.0633  19.8930  21.0387

     occupation numbers 
     1.0000   0.3292   0.0000   0.0000   0.0000   0.0000

          k =-0.4583 0.4583-0.3750 (    76 PWs)   bands (ev):

     1.6406   5.2193  17.3079  18.6598  19.4554  19.9736

     occupation numbers 
     1.0000   1.0000   0.0000   0.0000   0.0000   0.0000

          k = 0.4583-0.4583 0.5417 (    76 PWs)   bands (ev):

     2.9617   3.6860  17.8443  17.9618  19.2186  19.9418

     occupation numbers 
     1.0000   1.0000   0.0000   0.0000   0.0000   0.0000

          k = 0.3750-0.3750 0.4583 (    74 PWs)   bands (ev):

     1.0344   6.0402  17.5411  18.5911  18.8910  20.7854

     occupation numbers 
     1.0000   1.0010   0.0000   0.0000   0.0000   0.0000

          k = 0.2917-0.2917 0.3750 (    74 PWs)   bands (ev):

    -0.5575   8.6935  17.4283  18.6103  19.9144  22.3416

     occupation numbers 
     1.0000   0.0010   0.0000   0.0000   0.0000   0.0000

          k = 0.2083-0.2083 0.2917 (    74 PWs)   bands (ev):

    -1.7978  11.6266  17.6277  18.7980  21.3293  22.3909

     occupation numbers 
     1.0000   0.0000   0.0000   0.0000   0.0000   0.0000

          k = 0.1250-0.1250 0.2083 (    70 PWs)   bands (ev):

    -2.6755  14.8033  18.1385  19.2661  22.1478  22.7375

     occupation numbers 
     1.0000   0.0000   0.0000   0.0000   0.0000   0.0000

          k = 0.0417-0.0417 0.1250 (    65 PWs)   bands (ev):

    -3.1752  18.0962  18.9563  19.7932  21.2149  22.6070

     occupation numbers 
     1.0000   0.0000   0.0000   0.0000   0.0000   0.0000

          k =-0.0417 0.2083 0.0417 (    69 PWs)   bands (ev):

    -2.9265  17.0335  17.9207  18.9210  20.7251  23.3507

     occupation numbers 
     1.0000   0.0000   0.0000   0.0000   0.0000   0.0000

          k =-0.1250 0.2917-0.0417 (    72 PWs)   bands (ev):

    -2.4247  14.9015  16.4486  19.0907  20.6471  21.5802

     occupation numbers 
     1.0000   0.0000   0.0000   0.0000   0.0000   0.0000

          k =-0.2083 0.3750-0.1250 (    74 PWs)   bands (ev):

    -1.5497  11.8187  15.8831  18.8404  19.2699  22.7447

     occupation numbers 
     1.0000   0.0000   0.0000   0.0000   0.0000   0.0000

          k =-0.2917 0.4583-0.2083 (    76 PWs)   bands (ev):

    -0.3127   8.9085  15.6676  17.7512  18.7243  22.9539

     occupation numbers 
     1.0000   0.0001   0.0000   0.0000   0.0000   0.0000

          k =-0.3750 0.5417-0.2917 (    78 PWs)   bands (ev):

     1.2743   6.2646  15.7731  16.5605  18.8613  21.8197

     occupation numbers 
     1.0000   1.0057   0.0000   0.0000   0.0000   0.0000

          k = 0.5417-0.3750 0.6250 (    79 PWs)   bands (ev):

     3.1955   3.9200  15.6635  16.2267  19.3138  20.9717

     occupation numbers 
     1.0000   1.0000   0.0000   0.0000   0.0000   0.0000

          k = 0.4583-0.2917 0.5417 (    79 PWs)   bands (ev):

     1.8787   5.4469  15.1205  16.9763  20.0066  20.5147

     occupation numbers 
     1.0000   1.0000   0.0000   0.0000   0.0000   0.0000

          k = 0.3750-0.2083 0.4583 (    77 PWs)   bands (ev):

     0.1772   7.9918  14.9067  18.0454  20.1251  21.2620

     occupation numbers 
     1.0000   0.1352   0.0000   0.0000   0.0000   0.0000

          k = 0.2917-0.1250 0.3750 (    77 PWs)   bands (ev):

    -1.1800  10.8070  15.0272  19.3783  20.2552  22.5757

     occupation numbers 
     1.0000   0.0000   0.0000   0.0000   0.0000   0.0000

          k = 0.2083-0.0417 0.2917 (    73 PWs)   bands (ev):

    -2.1736  13.7925  15.5512  20.3931  20.9855  22.4277

     occupation numbers 
     1.0000   0.0000   0.0000   0.0000   0.0000   0.0000

          k = 0.1250 0.0417 0.2083 (    69 PWs)   bands (ev):

    -2.8004  15.8984  17.3687  19.8964  21.4047  23.2097

     occupation numbers 
     1.0000   0.0000   0.0000   0.0000   0.0000   0.0000

          k =-0.0417 0.3750 0.0417 (    76 PWs)   bands (ev):

    -2.0526  15.1652  16.1415  17.0789  18.8756  19.6582

     occupation numbers 
     1.0000   0.0000   0.0000   0.0000   0.0000   0.0000

          k =-0.1250 0.4583-0.0417 (    78 PWs)   bands (ev):

    -1.3064  13.2167  14.8631  16.9636  17.4867  19.8669

     occupation numbers 
     1.0000   0.0000   0.0000   0.0000   0.0000   0.0000

          k =-0.2083 0.5417-0.1250 (    79 PWs)   bands (ev):

    -0.1941  10.3398  14.4814  15.3227  17.5413  21.6387

     occupation numbers 
     1.0000   0.0000   0.0000   0.0000   0.0000   0.0000

          k =-0.2917 0.6250-0.2083 (    81 PWs)   bands (ev):

     1.2706   7.6368  13.9402  14.5269  17.6426  23.7940

     occupation numbers 
     1.0000   0.5061   0.0000   0.0000   0.0000   0.0000

          k = 0.6250-0.2917 0.7083 (    79 PWs)   bands (ev):

     3.0749   5.2108  12.9616  14.8317  18.0337  23.3992

     occupation numbers 
     1.0000   1.0000   0.0000   0.0000   0.0000   0.0000

          k = 0.5417-0.2083 0.6250 (    79 PWs)   bands (ev):

     3.0771   5.2027  12.3023  15.4803  18.7293  22.7693

     occupation numbers 
     1.0000   1.0000   0.0000   0.0000   0.0000   0.0000

          k = 0.4583-0.1250 0.5417 (    79 PWs)   bands (ev):

     1.2711   7.6081  12.0056  16.4519  19.7307  22.4339

     occupation numbers 
     1.0000   0.5455   0.0000   0.0000   0.0000   0.0000

          k = 0.3750-0.0417 0.4583 (    78 PWs)   bands (ev):

    -0.1932  10.1723  12.1744  17.7375  21.0080  22.3106

     occupation numbers 
     1.0000   0.0000   0.0000   0.0000   0.0000   0.0000

          k = 0.2917 0.0417 0.3750 (    75 PWs)   bands (ev):

    -1.3022  11.8761  13.7985  19.3051  21.2562  22.3984

     occupation numbers 
     1.0000   0.0000   0.0000   0.0000   0.0000   0.0000

          k = 0.2083 0.1250 0.2917 (    73 PWs)   bands (ev):

    -2.0484  12.7179  16.7132  19.4507  21.1696  22.9910

     occupation numbers 
     1.0000   0.0000   0.0000   0.0000   0.0000   0.0000

          k =-0.0417 0.5417 0.0417 (    77 PWs)   bands (ev):

    -0.6862  13.7051  14.7829  14.8671  15.6055  18.4255

     occupation numbers 
     1.0000   0.0000   0.0000   0.0000   0.0000   0.0000

          k =-0.1250 0.6250-0.0417 (    80 PWs)   bands (ev):

     0.2942  11.9630  13.0433  13.7365  16.2529  18.8254

     occupation numbers 
     1.0000   0.0000   0.0000   0.0000   0.0000   0.0000

          k =-0.2083 0.7083-0.1250 (    80 PWs)   bands (ev):

     1.6320   9.3049  11.6109  13.5467  16.5513  20.7939

     occupation numbers 
     1.0000   0.0000   0.0000   0.0000   0.0000   0.0000

          k = 0.7083-0.2083 0.7917 (    79 PWs)   bands (ev):

     3.3055   6.8268  10.4923  13.7517  16.8941  23.3602

     occupation numbers 
     1.0000   1.0739   0.0000   0.0000   0.0000   0.0000

          k = 0.6250-0.1250 0.7083 (    83 PWs)   bands (ev):

     4.6006   5.2976   9.7273  14.2894  17.5042  25.3326

     occupation numbers 
     1.0000   1.0000   0.0000   0.0000   0.0000   0.0000

          k = 0.5417-0.0417 0.6250 (    81 PWs)   bands (ev):

     2.7162   7.4390   9.4538  15.1583  18.4315  24.9734

     occupation numbers 
     1.0000   0.7747   0.0000   0.0000   0.0000   0.0000

          k = 0.4583 0.0417 0.5417 (    78 PWs)   bands (ev):

     1.1504   8.6930  10.7221  16.3471  19.6527  23.5371

     occupation numbers 
     1.0000   0.0010   0.0000   0.0000   0.0000   0.0000

          k = 0.3750 0.1250 0.4583 (    77 PWs)   bands (ev):

    -0.0693   9.1018  13.4369  17.8405  20.9206  21.4120

     occupation numbers 
     1.0000   0.0000   0.0000   0.0000   0.0000   0.0000

          k = 0.2917 0.2083 0.3750 (    75 PWs)   bands (ev):

    -0.9290   9.7101  16.3991  19.1422  19.7111  22.4857

     occupation numbers 
     1.0000   0.0000   0.0000   0.0000   0.0000   0.0000

          k =-0.0417 0.7083 0.0417 (    79 PWs)   bands (ev):

     1.1470  11.1415  12.6921  13.8453  14.5710  17.5255

     occupation numbers 
     1.0000   0.0000   0.0000   0.0000   0.0000   0.0000

          k =-0.1250 0.7917-0.0417 (    81 PWs)   bands (ev):

     2.3472   9.5401  11.1843  12.9587  15.4581  18.1223

     occupation numbers 
     1.0000   0.0000   0.0000   0.0000   0.0000   0.0000

          k = 0.7917-0.1250 0.8750 (    80 PWs)   bands (ev):

     3.8760   8.2480   8.8201  13.0009  15.9885  20.3031

     occupation numbers 
     1.0000   0.0322   0.0003   0.0000   0.0000   0.0000

          k = 0.7083-0.0417 0.7917 (    79 PWs)   bands (ev):

     5.6053   6.4495   7.5988  13.4269  16.5637  23.1051

     occupation numbers 
     1.0000   1.0178   0.5582   0.0000   0.0000   0.0000

          k = 0.6250 0.0417 0.7083 (    82 PWs)   bands (ev):

     4.4908   6.4142   8.3993  14.1808  17.3981  25.9600

     occupation numbers 
     1.0000   1.0146   0.0113   0.0000   0.0000   0.0000

          k = 0.5417 0.1250 0.6250 (    81 PWs)   bands (ev):

     2.8356   6.3362  10.7620  15.2643  18.5301  23.8316

     occupation numbers 
     1.0000   1.0092   0.0000   0.0000   0.0000   0.0000

          k = 0.4583 0.2083 0.5417 (    79 PWs)   bands (ev):

     1.5154   6.4862  13.5166  16.6632  19.8839  21.3847

     occupation numbers 
     1.0000   1.0216   0.0000   0.0000   0.0000   0.0000

          k = 0.3750 0.2917 0.4583 (    75 PWs)   bands (ev):

     0.5460   6.9661  16.4075  18.3377  19.2618  21.2335

     occupation numbers 
     1.0000   1.0830   0.0000   0.0000   0.0000   0.0000

          k =-0.0417 0.8750 0.0417 (    84 PWs)   bands (ev):

     3.4007   7.8355  12.1180  13.3255  13.9957  16.9833

     occupation numbers 
     1.0000   0.2652   0.0000   0.0000   0.0000   0.0000

          k = 0.8750-0.0417 0.9583 (    81 PWs)   bands (ev):

     4.6955   6.5741  10.8380  12.6331  15.1184  17.8218

     occupation numbers 
     1.0000   1.0329   0.0000   0.0000   0.0000   0.0000

          k = 0.7917 0.0417 0.8750 (    79 PWs)   bands (ev):

     5.0398   6.9272   8.6557  12.8928  15.8786  20.2104

     occupation numbers 
     1.0000   1.0830   0.0014   0.0000   0.0000   0.0000

          k = 0.7083 0.1250 0.7917 (    79 PWs)   bands (ev):

     4.4622   6.5895   8.9264  13.5342  16.6756  23.1920

     occupation numbers 
     1.0000   1.0351   0.0001   0.0000   0.0000   0.0000

          k = 0.6250 0.2083 0.7083 (    80 PWs)   bands (ev):

     4.1265   4.8648  11.2879  14.5076  17.7221  24.3447

     occupation numbers 
     1.0000   1.0000   0.0000   0.0000   0.0000   0.0000

          k = 0.5417 0.2917 0.6250 (    80 PWs)   bands (ev):

     3.4308   4.1545  13.9497  15.7995  19.0001  21.8073

     occupation numbers 
     1.0000   1.0000   0.0000   0.0000   0.0000   0.0000

          k = 0.4583 0.3750 0.5417 (    77 PWs)   bands (ev):

     2.3638   4.5110  16.7337  17.3844  19.5587  20.2876

     occupation numbers 
     1.0000   1.0000   0.0000   0.0000   0.0000   0.0000

          k =-0.0417-0.9583 0.0417 (    84 PWs)   bands (ev):

     4.5790   6.4496  12.0029  13.2221  13.8809  16.8813

     occupation numbers 
     1.0000   1.0178   0.0000   0.0000   0.0000   0.0000

          k =-0.1250-0.8750-0.0417 (    83 PWs)   bands (ev):

     3.5185   7.9519  10.9531  12.7401  15.2308  17.9114

     occupation numbers 
     1.0000   0.1628   0.0000   0.0000   0.0000   0.0000

          k =-0.2083-0.7917-0.1250 (    80 PWs)   bands (ev):

     2.7078   8.9405   9.9372  13.2190  16.2144  20.5025

     occupation numbers 
     1.0000   0.0001   0.0000   0.0000   0.0000   0.0000

          k =-0.2917-0.7083-0.2083 (    80 PWs)   bands (ev):

     2.2351   7.1758  12.1752  14.0771  17.2179  23.5925

     occupation numbers 
     1.0000   1.0252   0.0000   0.0000   0.0000   0.0000

          k =-0.3750-0.6250-0.2917 (    79 PWs)   bands (ev):

     2.1181   5.6795  14.7105  15.2728  18.4229  22.5487

     occupation numbers 
     1.0000   1.0000   0.0000   0.0000   0.0000   0.0000

          k =-0.0417-0.7917 0.0417 (    79 PWs)   bands (ev):

     2.2285   9.4356  12.3489  13.5343  14.2275  17.2135

     occupation numbers 
     1.0000   0.0000   0.0000   0.0000   0.0000   0.0000

          k =-0.1250-0.7083-0.0417 (    80 PWs)   bands (ev):

     1.2671  11.2136  11.5542  13.2862  15.8006  18.4288

     occupation numbers 
     1.0000   0.0000   0.0000   0.0000   0.0000   0.0000

          k =-0.2083-0.6250-0.1250 (    79 PWs)   bands (ev):

     0.6626   9.7676  13.3821  14.0018  16.9987  21.1762

     occupation numbers 
     1.0000   0.0000   0.0000   0.0000   0.0000   0.0000

          k =-0.2917-0.5417-0.2083 (    78 PWs)   bands (ev):

     0.4212   8.2163  15.0176  15.8533  18.1612  23.5113

     occupation numbers 
     1.0000   0.0393   0.0000   0.0000   0.0000   0.0000

          k =-0.0417-0.6250 0.0417 (    79 PWs)   bands (ev):

     0.1729  12.9310  13.1668  14.2611  15.0296  17.9321

     occupation numbers 
     1.0000   0.0000   0.0000   0.0000   0.0000   0.0000

          k =-0.1250-0.5417-0.0417 (    79 PWs)   bands (ev):

    -0.5647  12.5357  14.2074  15.0028  16.8162  19.3080

     occupation numbers 
     1.0000   0.0000   0.0000   0.0000   0.0000   0.0000

          k =-0.2083-0.4583-0.1250 (    77 PWs)   bands (ev):

    -0.9319  11.0241  15.1370  17.2669  18.1743  22.1697

     occupation numbers 
     1.0000   0.0000   0.0000   0.0000   0.0000   0.0000

          k =-0.0417-0.4583 0.0417 (    76 PWs)   bands (ev):

    -1.4289  14.3831  15.4093  16.2834  16.8656  18.9908

     occupation numbers 
     1.0000   0.0000   0.0000   0.0000   0.0000   0.0000

          k =-0.1250-0.3750-0.0417 (    78 PWs)   bands (ev):

    -1.9294  14.0047  15.6057  18.2498  18.9713  20.5146

     occupation numbers 
     1.0000   0.0000   0.0000   0.0000   0.0000   0.0000

          k =-0.0417-0.2917 0.0417 (    74 PWs)   bands (ev):

    -2.5525  16.0508  16.9788  17.9675  20.0978  21.2115

     occupation numbers 
     1.0000   0.0000   0.0000   0.0000   0.0000   0.0000

          k =-0.1250 0.1250 0.1250 (    68 PWs)   bands (ev):

    -2.9255  15.8817  19.1753  19.1753  22.0923  22.9137

     occupation numbers 
     1.0000   0.0000   0.0000   0.0000   0.0000   0.0000

          k =-0.2083 0.2083 0.0417 (    73 PWs)   bands (ev):

    -2.5522  14.7980  16.4588  20.6788  21.8097  22.8149

     occupation numbers 
     1.0000   0.0000   0.0000   0.0000   0.0000   0.0000

          k =-0.2917 0.2917-0.0417 (    75 PWs)   bands (ev):

    -1.8005  12.7806  14.6427  20.5873  21.5559  22.7582

     occupation numbers 
     1.0000   0.0000   0.0000   0.0000   0.0000   0.0000

          k =-0.3750 0.3750-0.1250 (    75 PWs)   bands (ev):

    -0.6833   9.9028  14.1947  19.1848  21.1995  21.2723

     occupation numbers 
     1.0000   0.0000   0.0000   0.0000   0.0000   0.0000

          k =-0.4583 0.4583-0.2083 (    78 PWs)   bands (ev):

     0.7871   7.1831  14.1710  17.9524  19.8856  21.2414

     occupation numbers 
     1.0000   1.0210   0.0000   0.0000   0.0000   0.0000

          k = 0.4583-0.4583 0.7083 (    79 PWs)   bands (ev):

     2.6002   4.7414  14.4945  17.0081  18.8660  21.5514

     occupation numbers 
     1.0000   1.0000   0.0000   0.0000   0.0000   0.0000

          k = 0.3750-0.3750 0.6250 (    80 PWs)   bands (ev):

     2.5997   4.7422  15.1561  16.3735  18.1656  22.1848

     occupation numbers 
     1.0000   1.0000   0.0000   0.0000   0.0000   0.0000

          k = 0.2917-0.2917 0.5417 (    78 PWs)   bands (ev):

     0.7870   7.1897  16.0541  16.1502  17.7973  23.1278

     occupation numbers 
     1.0000   1.0170   0.0000   0.0000   0.0000   0.0000

          k = 0.2083-0.2083 0.4583 (    76 PWs)   bands (ev):

    -0.6825   9.9245  16.0492  17.4627  17.7421  23.4198

     occupation numbers 
     1.0000   0.0000   0.0000   0.0000   0.0000   0.0000

          k = 0.1250-0.1250 0.3750 (    77 PWs)   bands (ev):

    -1.8030  12.9104  16.3557  17.9271  19.0700  21.5228

     occupation numbers 
     1.0000   0.0000   0.0000   0.0000   0.0000   0.0000

          k =-0.1250 0.2917 0.1250 (    71 PWs)   bands (ev):

    -2.2982  13.8101  17.1968  18.6825  20.9816  22.3429

     occupation numbers 
     1.0000   0.0000   0.0000   0.0000   0.0000   0.0000

          k =-0.2083 0.3750 0.0417 (    75 PWs)   bands (ev):

    -1.6757  12.8910  14.7109  19.1330  19.7439  21.6807

     occupation numbers 
     1.0000   0.0000   0.0000   0.0000   0.0000   0.0000

          k =-0.2917 0.4583-0.0417 (    75 PWs)   bands (ev):

    -0.6832  11.0820  13.0406  17.4480  20.6319  22.2245

     occupation numbers 
     1.0000   0.0000   0.0000   0.0000   0.0000   0.0000

          k =-0.3750 0.5417-0.1250 (    79 PWs)   bands (ev):

     0.6629   8.4127  12.7699  16.0358  20.6715  21.6979

     occupation numbers 
     1.0000   0.0102   0.0000   0.0000   0.0000   0.0000

          k = 0.5417-0.3750 0.7917 (    79 PWs)   bands (ev):

     2.3603   5.9032  12.9559  14.9454  20.4078  21.1772

     occupation numbers 
     1.0000   1.0003   0.0000   0.0000   0.0000   0.0000

          k = 0.4583-0.2917 0.7083 (    80 PWs)   bands (ev):

     3.6635   4.3921  13.4747  14.2018  19.7186  21.6436

     occupation numbers 
     1.0000   1.0000   0.0000   0.0000   0.0000   0.0000

          k = 0.3750-0.2083 0.6250 (    80 PWs)   bands (ev):

     1.7555   6.7156  13.6778  14.4511  19.2577  22.4677

     occupation numbers 
     1.0000   1.0559   0.0000   0.0000   0.0000   0.0000

          k = 0.2917-0.1250 0.5417 (    79 PWs)   bands (ev):

     0.1742   9.3248  13.6152  15.6381  19.0761  22.8868

     occupation numbers 
     1.0000   0.0000   0.0000   0.0000   0.0000   0.0000

          k = 0.2083-0.0417 0.4583 (    77 PWs)   bands (ev):

    -1.0561  12.0978  13.9563  17.1679  19.0086  21.0845

     occupation numbers 
     1.0000   0.0000   0.0000   0.0000   0.0000   0.0000

          k =-0.1250 0.4583 0.1250 (    79 PWs)   bands (ev):

    -1.1831  12.1219  15.6219  17.0317  17.2087  20.8799

     occupation numbers 
     1.0000   0.0000   0.0000   0.0000   0.0000   0.0000

          k =-0.2083 0.5417 0.0417 (    78 PWs)   bands (ev):

    -0.3162  11.4166  13.2950  15.2207  18.3571  20.5567

     occupation numbers 
     1.0000   0.0000   0.0000   0.0000   0.0000   0.0000

          k =-0.2917 0.6250-0.0417 (    79 PWs)   bands (ev):

     0.9060   9.8278  11.7967  13.6804  19.4851  21.4879

     occupation numbers 
     1.0000   0.0000   0.0000   0.0000   0.0000   0.0000

          k = 0.6250-0.2917 0.8750 (    80 PWs)   bands (ev):

     2.4742   7.3751  11.6953  12.5023  19.8544  22.9775

     occupation numbers 
     1.0000   0.8523   0.0000   0.0000   0.0000   0.0000

          k = 0.5417-0.2083 0.7917 (    81 PWs)   bands (ev):

     4.3607   5.0915  11.4462  12.2750  20.3409  22.3496

     occupation numbers 
     1.0000   1.0000   0.0000   0.0000   0.0000   0.0000

          k = 0.4583-0.1250 0.7083 (    82 PWs)   bands (ev):

     3.0722   6.5661  10.9643  12.9988  21.0210  21.8623

     occupation numbers 
     1.0000   1.0317   0.0000   0.0000   0.0000   0.0000

          k = 0.3750-0.0417 0.6250 (    79 PWs)   bands (ev):

     1.3920   8.9192  10.9293  14.1041  21.2313  22.0744

     occupation numbers 
     1.0000   0.0001   0.0000   0.0000   0.0000   0.0000

          k = 0.2917 0.0417 0.5417 (    76 PWs)   bands (ev):

     0.0545  10.3993  12.3722  15.5370  20.0220  21.8730

     occupation numbers 
     1.0000   0.0000   0.0000   0.0000   0.0000   0.0000

          k =-0.1250 0.6250 0.1250 (    79 PWs)   bands (ev):

     0.4176  10.8704  13.1909  14.4718  15.9616  19.8378

     occupation numbers 
     1.0000   0.0000   0.0000   0.0000   0.0000   0.0000

          k =-0.2083 0.7083 0.0417 (    79 PWs)   bands (ev):

     1.5111  10.3839  11.4444  12.4057  17.3590  19.7165

     occupation numbers 
     1.0000   0.0000   0.0000   0.0000   0.0000   0.0000

          k = 0.7083-0.2083 0.9583 (    81 PWs)   bands (ev):

     2.9461   9.0204  10.0702  11.1409  18.7149  20.8753

     occupation numbers 
     1.0000   0.0000   0.0000   0.0000   0.0000   0.0000

          k = 0.6250-0.1250 0.8750 (    79 PWs)   bands (ev):

     4.6959   6.7921   9.1340  11.2608  19.3393  23.3295

     occupation numbers 
     1.0000   1.0687   0.0000   0.0000   0.0000   0.0000

          k = 0.5417-0.0417 0.7917 (    80 PWs)   bands (ev):

     4.7207   6.6428   8.6245  11.8853  20.0617  24.3936

     occupation numbers 
     1.0000   1.0435   0.0018   0.0000   0.0000   0.0000

          k = 0.4583 0.0417 0.7083 (    81 PWs)   bands (ev):

     2.9525   7.6658   9.6716  12.8835  21.0138  22.7726

     occupation numbers 
     1.0000   0.4672   0.0000   0.0000   0.0000   0.0000

          k = 0.3750 0.1250 0.6250 (    79 PWs)   bands (ev):

     1.5140   7.8381  12.2015  14.2153  20.2448  22.3131

     occupation numbers 
     1.0000   0.2626   0.0000   0.0000   0.0000   0.0000

          k =-0.1250 0.7917 0.1250 (    80 PWs)   bands (ev):

     2.4680   9.6087  10.1489  13.7435  15.1443  19.1418

     occupation numbers 
     1.0000   0.0000   0.0000   0.0000   0.0000   0.0000

          k = 0.7917-0.1250 1.0417 (    82 PWs)   bands (ev):

     3.7557   8.1782   9.8356  11.8031  16.7952  19.2205

     occupation numbers 
     1.0000   0.0496   0.0000   0.0000   0.0000   0.0000

          k = 0.7083-0.0417 0.9583 (    79 PWs)   bands (ev):

     5.2677   7.1588   8.7069  10.7453  18.3827  20.6145

     occupation numbers 
     1.0000   1.0344   0.0009   0.0000   0.0000   0.0000

          k = 0.6250 0.0417 0.8750 (    79 PWs)   bands (ev):

     5.8336   6.6561   7.8204  11.1340  19.2333  23.2836

     occupation numbers 
     1.0002   1.0457   0.2809   0.0000   0.0000   0.0000

          k = 0.5417 0.1250 0.7917 (    81 PWs)   bands (ev):

     4.8280   5.5321   9.9391  12.0083  20.1587  23.3529

     occupation numbers 
     1.0000   1.0000   0.0000   0.0000   0.0000   0.0000

          k = 0.4583 0.2083 0.7083 (    80 PWs)   bands (ev):

     3.3115   5.4368  12.4636  13.2574  20.5587  21.4891

     occupation numbers 
     1.0000   1.0000   0.0000   0.0000   0.0000   0.0000

          k =-0.1250-1.0417 0.1250 (    79 PWs)   bands (ev):

     4.8103   6.7002   9.7543  13.4328  14.7932  18.8393

     occupation numbers 
     1.0000   1.0533   0.0000   0.0000   0.0000   0.0000

          k =-0.2083-0.9583 0.0417 (    79 PWs)   bands (ev):

     4.9251   6.8122   9.7203  11.6925  16.6848  19.1406

     occupation numbers 
     1.0000   1.0718   0.0000   0.0000   0.0000   0.0000

          k =-0.2917-0.8750-0.0417 (    82 PWs)   bands (ev):

     4.1081   8.4752   8.8540  10.8677  18.4928  20.6910

     occupation numbers 
     1.0000   0.0063   0.0002   0.0000   0.0000   0.0000

          k =-0.3750-0.7917-0.1250 (    81 PWs)   bands (ev):

     3.5406   7.0265  10.6450  11.5317  19.5470  23.3367

     occupation numbers 
     1.0000   1.0775   0.0000   0.0000   0.0000   0.0000

          k =-0.1250-0.8750 0.1250 (    78 PWs)   bands (ev):

     3.6419   8.0718   9.8768  13.5374  14.9096  18.9430

     occupation numbers 
     1.0000   0.0903   0.0000   0.0000   0.0000   0.0000

          k =-0.2083-0.7917 0.0417 (    81 PWs)   bands (ev):

     2.5883   9.7244  10.0956  12.0335  17.0202  19.4185

     occupation numbers 
     1.0000   0.0000   0.0000   0.0000   0.0000   0.0000

          k =-0.2917-0.7083-0.0417 (    80 PWs)   bands (ev):

     1.8730   9.3702  11.2515  11.9869  19.0464  21.1468

     occupation numbers 
     1.0000   0.0000   0.0000   0.0000   0.0000   0.0000

          k =-0.1250-0.7083 0.1250 (    79 PWs)   bands (ev):

     1.3894  10.3986  11.4050  14.0551  15.4999  19.4439

     occupation numbers 
     1.0000   0.0000   0.0000   0.0000   0.0000   0.0000

          k =-0.2083-0.6250 0.0417 (    79 PWs)   bands (ev):

     0.5406  10.8458  12.6886  13.3929  17.8050  20.0965

     occupation numbers 
     1.0000   0.0000   0.0000   0.0000   0.0000   0.0000

          k =-0.1250-0.5417 0.1250 (    79 PWs)   bands (ev):

    -0.4412  11.4419  14.9939  15.0800  16.5294  20.3188

     occupation numbers 
     1.0000   0.0000   0.0000   0.0000   0.0000   0.0000

          k =-0.2083 0.2083 0.2083 (    74 PWs)   bands (ev):

    -2.1727  12.6294  18.5700  18.5702  21.8894  22.9214

     occupation numbers 
     1.0000   0.0000   0.0000   0.0000   0.0000   0.0000

          k =-0.2917 0.2917 0.1250 (    75 PWs)   bands (ev):

    -1.6758  11.7119  15.8572  20.1370  21.0793  22.6332

     occupation numbers 
     1.0000   0.0000   0.0000   0.0000   0.0000   0.0000

          k =-0.3750 0.3750 0.0417 (    77 PWs)   bands (ev):

    -0.8085  10.9678  12.9434  19.0873  21.1650  22.3891

     occupation numbers 
     1.0000   0.0000   0.0000   0.0000   0.0000   0.0000

          k =-0.4583 0.4583-0.0417 (    77 PWs)   bands (ev):

     0.4208   9.3761  11.4016  17.6358  19.6753  23.5104

     occupation numbers 
     1.0000   0.0000   0.0000   0.0000   0.0000   0.0000

          k = 0.4583-0.4583 0.8750 (    81 PWs)   bands (ev):

     1.9961   6.9145  11.3300  16.4781  18.4224  23.6298

     occupation numbers 
     1.0000   1.0825   0.0000   0.0000   0.0000   0.0000

          k = 0.3750-0.3750 0.7917 (    79 PWs)   bands (ev):

     3.9016   4.6224  11.7445  15.6342  17.4946  24.0480

     occupation numbers 
     1.0000   1.0000   0.0000   0.0000   0.0000   0.0000

          k = 0.2917-0.2917 0.7083 (    80 PWs)   bands (ev):

     2.5953   6.1422  12.5205  15.1072  16.8725  24.7743

     occupation numbers 
     1.0000   1.0023   0.0000   0.0000   0.0000   0.0000

          k = 0.2083-0.2083 0.6250 (    77 PWs)   bands (ev):

     0.9093   8.6648  13.6388  14.8949  16.5843  22.5308

     occupation numbers 
     1.0000   0.0013   0.0000   0.0000   0.0000   0.0000

          k =-0.2083 0.3750 0.2083 (    74 PWs)   bands (ev):

    -1.2998  10.7240  16.7856  18.3628  19.4389  23.4337

     occupation numbers 
     1.0000   0.0000   0.0000   0.0000   0.0000   0.0000

          k =-0.2917 0.4583 0.1250 (    77 PWs)   bands (ev):

    -0.5614  10.0113  14.2773  17.5479  19.6576  22.8630

     occupation numbers 
     1.0000   0.0000   0.0000   0.0000   0.0000   0.0000

          k =-0.3750 0.5417 0.0417 (    78 PWs)   bands (ev):

     0.5421   9.4899  11.5009  15.9315  21.3785  21.8808

     occupation numbers 
     1.0000   0.0000   0.0000   0.0000   0.0000   0.0000

          k = 0.5417-0.3750 0.9583 (    80 PWs)   bands (ev):

     1.9957   8.1226  10.1430  14.6159  20.2408  23.1495

     occupation numbers 
     1.0000   0.0685   0.0000   0.0000   0.0000   0.0000

          k = 0.4583-0.2917 0.8750 (    82 PWs)   bands (ev):

     3.7845   5.8713  10.2969  13.6262  19.2523  23.6059

     occupation numbers 
     1.0000   1.0002   0.0000   0.0000   0.0000   0.0000

          k = 0.3750-0.2083 0.7917 (    80 PWs)   bands (ev):

     3.7774   5.9037  10.9352  12.9782  18.5536  24.0808

     occupation numbers 
     1.0000   1.0003   0.0000   0.0000   0.0000   0.0000

          k = 0.2917-0.1250 0.7083 (    81 PWs)   bands (ev):

     1.9926   8.2891  11.8993  12.7075  18.1300  22.2572

     occupation numbers 
     1.0000   0.0246   0.0000   0.0000   0.0000   0.0000

          k =-0.2083 0.5417 0.2083 (    75 PWs)   bands (ev):

     0.0571   9.2396  15.4189  15.5180  17.1355  22.9643

     occupation numbers 
     1.0000   0.0000   0.0000   0.0000   0.0000   0.0000

          k =-0.2917 0.6250 0.1250 (    80 PWs)   bands (ev):

     1.0267   8.7511  13.0269  13.8097  18.5590  22.5817

     occupation numbers 
     1.0000   0.0006   0.0000   0.0000   0.0000   0.0000

          k = 0.6250-0.2917 1.0417 (    82 PWs)   bands (ev):

     2.3530   8.4617  10.4490  12.3476  20.8329  22.3650

     occupation numbers 
     1.0000   0.0070   0.0000   0.0000   0.0000   0.0000

          k = 0.5417-0.2083 0.9583 (    81 PWs)   bands (ev):

     4.0135   7.3232   9.3017  11.2400  21.8418  22.5165

     occupation numbers 
     1.0000   0.9083   0.0000   0.0000   0.0000   0.0000

          k = 0.4583-0.1250 0.8750 (    78 PWs)   bands (ev):

     5.2710   6.0003   9.6382  10.5431  21.1601  23.1450

     occupation numbers 
     1.0000   1.0007   0.0000   0.0000   0.0000   0.0000

          k = 0.3750-0.0417 0.7917 (    82 PWs)   bands (ev):

     3.4205   8.1180   9.9963  10.7763  20.5146  22.3227

     occupation numbers 
     1.0000   0.0702   0.0000   0.0000   0.0000   0.0000

          k =-0.2083 0.7083 0.2083 (    78 PWs)   bands (ev):

     1.8764   8.2016  11.8468  14.4766  16.1299  22.1655

     occupation numbers 
     1.0000   0.0431   0.0000   0.0000   0.0000   0.0000

          k = 0.7083-0.2083 1.1250 (    81 PWs)   bands (ev):

     3.0652   7.9388  10.2491  12.3393  17.8055  21.9906

     occupation numbers 
     1.0000   0.1728   0.0000   0.0000   0.0000   0.0000

          k = 0.6250-0.1250 1.0417 (    80 PWs)   bands (ev):

     4.5790   7.8832   8.9414  10.0422  20.3018  22.2221

     occupation numbers 
     1.0000   0.2194   0.0001   0.0000   0.0000   0.0000

          k = 0.5417-0.0417 0.9583 (    83 PWs)   bands (ev):

     6.2864   6.9723   8.1408   9.1573  22.0761  23.4602

     occupation numbers 
     1.0066   1.0828   0.0617   0.0000   0.0000   0.0000

          k = 0.4583 0.0417 0.8750 (    80 PWs)   bands (ev):

     5.1610   7.0960   8.9572   9.7944  22.1469  22.8838

     occupation numbers 
     1.0000   1.0608   0.0001   0.0000   0.0000   0.0000

          k =-0.2083-1.1250 0.2083 (    76 PWs)   bands (ev):

     4.1141   7.5951   8.6069  13.9558  15.5619  21.7005

     occupation numbers 
     1.0000   0.5633   0.0021   0.0000   0.0000   0.0000

          k =-0.2917-1.0417 0.1250 (    78 PWs)   bands (ev):

     5.3813   7.2035   7.7188  11.9984  17.4809  21.7247

     occupation numbers 
     1.0000   1.0083   0.3986   0.0000   0.0000   0.0000

          k =-0.3750-0.9583 0.0417 (    79 PWs)   bands (ev):

     5.7229   7.5459   7.8660   9.8785  20.1925  22.1556

     occupation numbers 
     1.0000   0.6315   0.2353   0.0000   0.0000   0.0000

          k =-0.2083-0.9583 0.2083 (    79 PWs)   bands (ev):

     5.2665   7.0863   7.6311  13.8509  15.4389  21.5934

     occupation numbers 
     1.0000   1.0639   0.5139   0.0000   0.0000   0.0000

          k =-0.2917-0.8750 0.1250 (    78 PWs)   bands (ev):

     4.2304   7.6880   8.7055  12.1135  17.5910  21.8153

     occupation numbers 
     1.0000   0.4380   0.0009   0.0000   0.0000   0.0000

          k =-0.2083-0.7917 0.2083 (    78 PWs)   bands (ev):

     2.9493   7.8501  10.1582  14.1638  15.7863  21.8841

     occupation numbers 
     1.0000   0.2506   0.0000   0.0000   0.0000   0.0000

          k =-0.2917 0.2917 0.2917 (    74 PWs)   bands (ev):

    -1.0520   9.6057  18.2695  18.2695  21.5035  21.5037

     occupation numbers 
     1.0000   0.0000   0.0000   0.0000   0.0000   0.0000

          k =-0.3750 0.3750 0.2083 (    76 PWs)   bands (ev):

    -0.4362   8.7971  15.6383  19.3412  20.2560  21.2135

     occupation numbers 
     1.0000   0.0004   0.0000   0.0000   0.0000   0.0000

          k =-0.4583 0.4583 0.1250 (    79 PWs)   bands (ev):

     0.5411   8.2981  12.6729  17.7409  19.7442  22.3262

     occupation numbers 
     1.0000   0.0232   0.0000   0.0000   0.0000   0.0000

          k = 0.4583-0.4583 1.0417 (    79 PWs)   bands (ev):

     1.8750   8.0098  10.0375  16.3725  18.3399  24.8271

     occupation numbers 
     1.0000   0.1239   0.0000   0.0000   0.0000   0.0000

          k = 0.3750-0.3750 0.9583 (    82 PWs)   bands (ev):

     3.5495   6.8695   8.8697  15.3187  17.1692  26.3345

     occupation numbers 
     1.0000   1.0790   0.0002   0.0000   0.0000   0.0000

          k = 0.2917-0.2917 0.8750 (    78 PWs)   bands (ev):

     4.8046   5.5684   9.2755  14.5839  16.3258  24.6626

     occupation numbers 
     1.0000   1.0000   0.0000   0.0000   0.0000   0.0000

          k =-0.2917 0.4583 0.2917 (    74 PWs)   bands (ev):

     0.0577   7.8887  16.6888  18.0340  18.3184  22.4858

     occupation numbers 
     1.0000   0.2144   0.0000   0.0000   0.0000   0.0000

          k =-0.3750 0.5417 0.2083 (    78 PWs)   bands (ev):

     0.9089   7.2977  14.2552  16.2492  19.7080  21.7823

     occupation numbers 
     1.0000   0.9332   0.0000   0.0000   0.0000   0.0000

          k = 0.5417-0.3750 1.1250 (    82 PWs)   bands (ev):

     2.1139   7.0291  11.4329  14.7244  20.3132  22.1179

     occupation numbers 
     1.0000   1.0771   0.0000   0.0000   0.0000   0.0000

          k = 0.4583-0.2917 1.0417 (    82 PWs)   bands (ev):

     3.6658   6.9821   8.9828  13.5135  19.1527  24.6882

     occupation numbers 
     1.0000   1.0823   0.0000   0.0000   0.0000   0.0000

          k = 0.3750-0.2083 0.9583 (    80 PWs)   bands (ev):

     5.5252   6.0805   8.0484  12.6336  18.2417  24.6157

     occupation numbers 
     1.0000   1.0014   0.1021   0.0000   0.0000   0.0000

          k =-0.2917 0.6250 0.2917 (    79 PWs)   bands (ev):

     1.6358   6.6079  14.2983  15.5275  17.2999  23.8977

     occupation numbers 
     1.0000   1.0379   0.0000   0.0000   0.0000   0.0000

          k = 0.6250-0.2917 1.2083 (    80 PWs)   bands (ev):

     2.7151   6.2507  12.5803  13.3426  18.8632  23.2659

     occupation numbers 
     1.0000   1.0052   0.0000   0.0000   0.0000   0.0000

          k = 0.5417-0.2083 1.1250 (    81 PWs)   bands (ev):

     4.1324   6.2201  10.5571  11.4023  21.2837  22.2269

     occupation numbers 
     1.0000   1.0042   0.0000   0.0000   0.0000   0.0000

          k = 0.4583-0.1250 1.0417 (    79 PWs)   bands (ev):

     5.8481   6.4216   8.3694  10.3725  21.0704  24.1003

     occupation numbers 
     1.0002   1.0153   0.0141   0.0000   0.0000   0.0000

          k =-0.2917-1.2083 0.2917 (    79 PWs)   bands (ev):

     3.6602   5.7948  10.8387  14.7928  16.5458  24.7883

     occupation numbers 
     1.0000   1.0001   0.0000   0.0000   0.0000   0.0000

          k =-0.3750-1.1250 0.2083 (    81 PWs)   bands (ev):

     4.9201   5.6755   9.3779  12.7477  18.3454  24.5501

     occupation numbers 
     1.0000   1.0000   0.0000   0.0000   0.0000   0.0000

          k =-0.2917-1.0417 0.2917 (    81 PWs)   bands (ev):

     5.4131   5.9681   7.9335  14.4778  16.2085  24.5835

     occupation numbers 
     1.0000   1.0005   0.1769   0.0000   0.0000   0.0000

          k =-0.3750 0.3750 0.3750 (    74 PWs)   bands (ev):

     0.4248   6.8542  18.2761  18.2761  20.2547  20.2548

     occupation numbers 
     1.0000   1.0773   0.0000   0.0000   0.0000   0.0000

          k =-0.4583 0.4583 0.2917 (    76 PWs)   bands (ev):

     1.1537   6.1519  15.7509  18.2679  20.0190  20.2826

     occupation numbers 
     1.0000   1.0025   0.0000   0.0000   0.0000   0.0000

          k = 0.4583-0.4583 1.2083 (    79 PWs)   bands (ev):

     2.2406   5.7868  12.8606  16.6899  18.6147  22.5342

     occupation numbers 
     1.0000   1.0001   0.0000   0.0000   0.0000   0.0000

          k = 0.3750-0.3750 1.1250 (    79 PWs)   bands (ev):

     3.6702   5.7575  10.1957  15.4237  17.2856  25.1467

     occupation numbers 
     1.0000   1.0001   0.0000   0.0000   0.0000   0.0000

          k =-0.3750 0.5417 0.3750 (    77 PWs)   bands (ev):

     1.7596   5.3343  16.9058  16.9546  18.5491  21.4325

     occupation numbers 
     1.0000   1.0000   0.0000   0.0000   0.0000   0.0000

          k = 0.5417-0.3750 1.2917 (    79 PWs)   bands (ev):

     2.7193   4.8591  14.5622  15.2775  20.0081  20.8704

     occupation numbers 
     1.0000   1.0000   0.0000   0.0000   0.0000   0.0000

          k = 0.4583-0.2917 1.2083 (    80 PWs)   bands (ev):

     4.0166   4.7392  11.8407  13.8528  19.4486  22.5744

     occupation numbers 
     1.0000   1.0000   0.0000   0.0000   0.0000   0.0000

          k =-0.3750-1.2917 0.3750 (    80 PWs)   bands (ev):

     3.5466   4.2752  13.4082  15.9507  17.7931  23.0602

     occupation numbers 
     1.0000   1.0000   0.0000   0.0000   0.0000   0.0000

          k =-0.4583 0.4583 0.4583 (    76 PWs)   bands (ev):

     2.2451   4.3945  18.5659  18.5659  19.3328  19.3328

     occupation numbers 
     1.0000   1.0000   0.0000   0.0000   0.0000   0.0000

          k = 0.4583-0.4583 1.3750 (    78 PWs)   bands (ev):

     3.0781   3.8025  16.1882  17.4338  19.1221  20.6929

     occupation numbers 
     1.0000   1.0000   0.0000   0.0000   0.0000   0.0000

     the Fermi energy is     7.7172 ev

!    total energy              =      -4.18211623 Ry
     estimated scf accuracy    <       0.00000036 Ry
     smearing contrib. (-TS)   =      -0.00006651 Ry
     internal energy E=F+TS    =      -4.18204972 Ry

     The total energy is F=E-TS. E is the sum of the following terms:
     one-electron contribution =       2.80799723 Ry
     hartree contribution      =       0.00904561 Ry
     xc contribution           =      -1.60513712 Ry
     ewald contribution        =      -5.39395543 Ry

     convergence has been achieved in   3 iterations

     Writing output data file ./tmp/Al_exc1.save/

     init_run     :      0.48s CPU      0.05s WALL (       1 calls)
     electrons    :      6.34s CPU      0.54s WALL (       1 calls)

     Called by init_run:
     wfcinit      :      0.48s CPU      0.04s WALL (       1 calls)
     wfcinit:atom :      0.02s CPU      0.00s WALL (     182 calls)
     wfcinit:wfcr :      0.41s CPU      0.03s WALL (     182 calls)
     potinit      :      0.00s CPU      0.00s WALL (       1 calls)
     hinit0       :      0.00s CPU      0.00s WALL (       1 calls)

     Called by electrons:
     c_bands      :      5.72s CPU      0.49s WALL (       4 calls)
     sum_band     :      0.62s CPU      0.05s WALL (       4 calls)
     v_of_rho     :      0.00s CPU      0.00s WALL (       4 calls)
     v_h          :      0.00s CPU      0.00s WALL (       4 calls)
     v_xc         :      0.00s CPU      0.00s WALL (       4 calls)
     mix_rho      :      0.00s CPU      0.00s WALL (       4 calls)

     Called by c_bands:
     init_us_2    :      0.25s CPU      0.02s WALL (    1638 calls)
     cegterg      :      5.43s CPU      0.47s WALL (     728 calls)

     Called by sum_band:
     sum_band:wei :      0.05s CPU      0.00s WALL (       4 calls)
     sum_band:loo :      0.57s CPU      0.05s WALL (       4 calls)
     sum_band:buf :      0.02s CPU      0.00s WALL (     728 calls)
     sum_band:ini :      0.10s CPU      0.01s WALL (     728 calls)

     Called by *egterg:
     cdiaghg      :      2.06s CPU      0.19s WALL (    2364 calls)
     cegterg:over :      0.07s CPU      0.01s WALL (    1818 calls)
     cegterg:upda :      0.08s CPU      0.01s WALL (    1818 calls)
     cegterg:last :      0.07s CPU      0.01s WALL (    1381 calls)
     h_psi        :      3.19s CPU      0.26s WALL (    2728 calls)
     g_psi        :      0.06s CPU      0.00s WALL (    1818 calls)

     Called by h_psi:
     h_psi:calbec :      0.12s CPU      0.01s WALL (    2728 calls)
     vloc_psi     :      2.69s CPU      0.22s WALL (    2728 calls)
     add_vuspsi   :      0.15s CPU      0.01s WALL (    2728 calls)

     General routines
     calbec       :      0.08s CPU      0.01s WALL (    2728 calls)
     fft          :      0.00s CPU      0.00s WALL (      12 calls)
     ffts         :      0.00s CPU      0.00s WALL (       4 calls)
     fftw         :      2.15s CPU      0.18s WALL (   29730 calls)


     PWSCF        :      6.85s CPU      0.62s WALL


   This run was terminated on:  13:14:31   6Mar2023            

=------------------------------------------------------------------------------=
   JOB DONE.
=------------------------------------------------------------------------------=
