
     Program PWSCF v.6.6 starts on  6Mar2023 at 13:14:36 

     This program is part of the open-source Quantum ESPRESSO suite
     for quantum simulation of materials; please cite
         "P. Giannozzi et al., J. Phys.:Condens. Matter 21 395502 (2009);
         "P. Giannozzi et al., J. Phys.:Condens. Matter 29 465901 (2017);
          URL http://www.quantum-espresso.org", 
     in publications or presentations arising from this work. More details at
     http://www.quantum-espresso.org/quote

     Serial version
     Fft bands division:     nmany     =       1
     Waiting for input...
     Reading input from standard input

     Current dimensions of program PWSCF are:
     Max number of different atomic species (ntypx) = 10
     Max number of k-points (npk) =  40000
     Max angular momentum in pseudopotentials (lmaxx) =  3

     G-vector sticks info
     --------------------
     sticks:   dense  smooth     PW     G-vecs:    dense   smooth      PW
     Sum          91      91     43                  609      609     181



     bravais-lattice index     =            2
     lattice parameter (alat)  =       7.6500  a.u.
     unit-cell volume          =     111.9243 (a.u.)^3
     number of atoms/cell      =            1
     number of atomic types    =            1
     number of electrons       =         3.00
     number of Kohn-Sham states=            6
     kinetic-energy cutoff     =      12.0000  Ry
     charge density cutoff     =      48.0000  Ry
     convergence threshold     =      1.0E-06
     mixing beta               =       0.7000
     number of iterations used =            8  plain     mixing
     Exchange-correlation= SLA PZ NOGX NOGC
                           (   1   1   0   0   0   0   0)

     celldm(1)=   7.650000  celldm(2)=   0.000000  celldm(3)=   0.000000
     celldm(4)=   0.000000  celldm(5)=   0.000000  celldm(6)=   0.000000

     crystal axes: (cart. coord. in units of alat)
               a(1) = (  -0.500000   0.000000   0.500000 )  
               a(2) = (   0.000000   0.500000   0.500000 )  
               a(3) = (  -0.500000   0.500000   0.000000 )  

     reciprocal axes: (cart. coord. in units 2 pi/alat)
               b(1) = ( -1.000000 -1.000000  1.000000 )  
               b(2) = (  1.000000  1.000000  1.000000 )  
               b(3) = ( -1.000000  1.000000 -1.000000 )  


     PseudoPot. # 1 for Al read from file:
     ../pseudo/Al.pz-vbc.UPF
     MD5 check sum: f06ceae8da0fe5c02c98e3688433298c
     Pseudo is Norm-conserving, Zval =  3.0
     Generated by new atomic code, or converted to UPF format
     Using radial grid of  171 points,  2 beta functions with: 
                l(1) =   0
                l(2) =   1

     atomic species   valence    mass     pseudopotential
        Al             3.00    26.98000     Al( 1.00)

     48 Sym. Ops., with inversion, found


                                    s                        frac. trans.

      isym =  1     identity                                     

 cryst.   s( 1) = (     1          0          0      )
                  (     0          1          0      )
                  (     0          0          1      )

 cart.    s( 1) = (  1.0000000  0.0000000  0.0000000 )
                  (  0.0000000  1.0000000  0.0000000 )
                  (  0.0000000  0.0000000  1.0000000 )


      isym =  2     180 deg rotation - cart. axis [0,0,1]        

 cryst.   s( 2) = (     0          1         -1      )
                  (     1          0         -1      )
                  (     0          0         -1      )

 cart.    s( 2) = ( -1.0000000  0.0000000  0.0000000 )
                  (  0.0000000 -1.0000000  0.0000000 )
                  (  0.0000000  0.0000000  1.0000000 )


      isym =  3     180 deg rotation - cart. axis [0,1,0]        

 cryst.   s( 3) = (    -1          0          0      )
                  (    -1          0          1      )
                  (    -1          1          0      )

 cart.    s( 3) = ( -1.0000000  0.0000000  0.0000000 )
                  (  0.0000000  1.0000000  0.0000000 )
                  (  0.0000000  0.0000000 -1.0000000 )


      isym =  4     180 deg rotation - cart. axis [1,0,0]        

 cryst.   s( 4) = (     0         -1          1      )
                  (     0         -1          0      )
                  (     1         -1          0      )

 cart.    s( 4) = (  1.0000000  0.0000000  0.0000000 )
                  (  0.0000000 -1.0000000  0.0000000 )
                  (  0.0000000  0.0000000 -1.0000000 )


      isym =  5     180 deg rotation - cart. axis [1,1,0]        

 cryst.   s( 5) = (     0         -1          0      )
                  (    -1          0          0      )
                  (     0          0         -1      )

 cart.    s( 5) = (  0.0000000  1.0000000  0.0000000 )
                  (  1.0000000  0.0000000  0.0000000 )
                  (  0.0000000  0.0000000 -1.0000000 )


      isym =  6     180 deg rotation - cart. axis [1,-1,0]       

 cryst.   s( 6) = (    -1          0          1      )
                  (     0         -1          1      )
                  (     0          0          1      )

 cart.    s( 6) = (  0.0000000 -1.0000000  0.0000000 )
                  ( -1.0000000  0.0000000  0.0000000 )
                  (  0.0000000  0.0000000 -1.0000000 )


      isym =  7      90 deg rotation - cart. axis [0,0,-1]       

 cryst.   s( 7) = (     0          1          0      )
                  (     0          1         -1      )
                  (    -1          1          0      )

 cart.    s( 7) = (  0.0000000  1.0000000  0.0000000 )
                  ( -1.0000000  0.0000000  0.0000000 )
                  (  0.0000000  0.0000000  1.0000000 )


      isym =  8      90 deg rotation - cart. axis [0,0,1]        

 cryst.   s( 8) = (     1          0         -1      )
                  (     1          0          0      )
                  (     1         -1          0      )

 cart.    s( 8) = (  0.0000000 -1.0000000  0.0000000 )
                  (  1.0000000  0.0000000  0.0000000 )
                  (  0.0000000  0.0000000  1.0000000 )


      isym =  9     180 deg rotation - cart. axis [1,0,1]        

 cryst.   s( 9) = (    -1          0          0      )
                  (     0          0         -1      )
                  (     0         -1          0      )

 cart.    s( 9) = (  0.0000000  0.0000000  1.0000000 )
                  (  0.0000000 -1.0000000  0.0000000 )
                  (  1.0000000  0.0000000  0.0000000 )


      isym = 10     180 deg rotation - cart. axis [-1,0,1]       

 cryst.   s(10) = (     1          0          0      )
                  (     1         -1          0      )
                  (     1          0         -1      )

 cart.    s(10) = (  0.0000000  0.0000000 -1.0000000 )
                  (  0.0000000 -1.0000000  0.0000000 )
                  ( -1.0000000  0.0000000  0.0000000 )


      isym = 11      90 deg rotation - cart. axis [0,1,0]        

 cryst.   s(11) = (     0          1         -1      )
                  (    -1          1          0      )
                  (     0          1          0      )

 cart.    s(11) = (  0.0000000  0.0000000  1.0000000 )
                  (  0.0000000  1.0000000  0.0000000 )
                  ( -1.0000000  0.0000000  0.0000000 )


      isym = 12      90 deg rotation - cart. axis [0,-1,0]       

 cryst.   s(12) = (     0         -1          1      )
                  (     0          0          1      )
                  (    -1          0          1      )

 cart.    s(12) = (  0.0000000  0.0000000 -1.0000000 )
                  (  0.0000000  1.0000000  0.0000000 )
                  (  1.0000000  0.0000000  0.0000000 )


      isym = 13     180 deg rotation - cart. axis [0,1,1]        

 cryst.   s(13) = (    -1          1          0      )
                  (     0          1          0      )
                  (     0          1         -1      )

 cart.    s(13) = ( -1.0000000  0.0000000  0.0000000 )
                  (  0.0000000  0.0000000  1.0000000 )
                  (  0.0000000  1.0000000  0.0000000 )


      isym = 14     180 deg rotation - cart. axis [0,1,-1]       

 cryst.   s(14) = (     0          0         -1      )
                  (     0         -1          0      )
                  (    -1          0          0      )

 cart.    s(14) = ( -1.0000000  0.0000000  0.0000000 )
                  (  0.0000000  0.0000000 -1.0000000 )
                  (  0.0000000 -1.0000000  0.0000000 )


      isym = 15      90 deg rotation - cart. axis [-1,0,0]       

 cryst.   s(15) = (     0          0          1      )
                  (    -1          0          1      )
                  (     0         -1          1      )

 cart.    s(15) = (  1.0000000  0.0000000  0.0000000 )
                  (  0.0000000  0.0000000  1.0000000 )
                  (  0.0000000 -1.0000000  0.0000000 )


      isym = 16      90 deg rotation - cart. axis [1,0,0]        

 cryst.   s(16) = (     1         -1          0      )
                  (     1          0         -1      )
                  (     1          0          0      )

 cart.    s(16) = (  1.0000000  0.0000000  0.0000000 )
                  (  0.0000000  0.0000000 -1.0000000 )
                  (  0.0000000  1.0000000  0.0000000 )


      isym = 17     120 deg rotation - cart. axis [-1,-1,-1]     

 cryst.   s(17) = (    -1          0          1      )
                  (    -1          1          0      )
                  (    -1          0          0      )

 cart.    s(17) = (  0.0000000  1.0000000  0.0000000 )
                  (  0.0000000  0.0000000  1.0000000 )
                  (  1.0000000  0.0000000  0.0000000 )


      isym = 18     120 deg rotation - cart. axis [-1,1,1]       

 cryst.   s(18) = (     0          1          0      )
                  (     0          0          1      )
                  (     1          0          0      )

 cart.    s(18) = (  0.0000000 -1.0000000  0.0000000 )
                  (  0.0000000  0.0000000  1.0000000 )
                  ( -1.0000000  0.0000000  0.0000000 )


      isym = 19     120 deg rotation - cart. axis [1,1,-1]       

 cryst.   s(19) = (     1          0         -1      )
                  (     0          0         -1      )
                  (     0          1         -1      )

 cart.    s(19) = (  0.0000000  1.0000000  0.0000000 )
                  (  0.0000000  0.0000000 -1.0000000 )
                  ( -1.0000000  0.0000000  0.0000000 )


      isym = 20     120 deg rotation - cart. axis [1,-1,1]       

 cryst.   s(20) = (     0         -1          0      )
                  (     1         -1          0      )
                  (     0         -1          1      )

 cart.    s(20) = (  0.0000000 -1.0000000  0.0000000 )
                  (  0.0000000  0.0000000 -1.0000000 )
                  (  1.0000000  0.0000000  0.0000000 )


      isym = 21     120 deg rotation - cart. axis [1,1,1]        

 cryst.   s(21) = (     0          0         -1      )
                  (     0          1         -1      )
                  (     1          0         -1      )

 cart.    s(21) = (  0.0000000  0.0000000  1.0000000 )
                  (  1.0000000  0.0000000  0.0000000 )
                  (  0.0000000  1.0000000  0.0000000 )


      isym = 22     120 deg rotation - cart. axis [-1,1,-1]      

 cryst.   s(22) = (    -1          1          0      )
                  (    -1          0          0      )
                  (    -1          0          1      )

 cart.    s(22) = (  0.0000000  0.0000000  1.0000000 )
                  ( -1.0000000  0.0000000  0.0000000 )
                  (  0.0000000 -1.0000000  0.0000000 )


      isym = 23     120 deg rotation - cart. axis [1,-1,-1]      

 cryst.   s(23) = (     0          0          1      )
                  (     1          0          0      )
                  (     0          1          0      )

 cart.    s(23) = (  0.0000000  0.0000000 -1.0000000 )
                  ( -1.0000000  0.0000000  0.0000000 )
                  (  0.0000000  1.0000000  0.0000000 )


      isym = 24     120 deg rotation - cart. axis [-1,-1,1]      

 cryst.   s(24) = (     1         -1          0      )
                  (     0         -1          1      )
                  (     0         -1          0      )

 cart.    s(24) = (  0.0000000  0.0000000 -1.0000000 )
                  (  1.0000000  0.0000000  0.0000000 )
                  (  0.0000000 -1.0000000  0.0000000 )


      isym = 25     inversion                                    

 cryst.   s(25) = (    -1          0          0      )
                  (     0         -1          0      )
                  (     0          0         -1      )

 cart.    s(25) = ( -1.0000000  0.0000000  0.0000000 )
                  (  0.0000000 -1.0000000  0.0000000 )
                  (  0.0000000  0.0000000 -1.0000000 )


      isym = 26     inv. 180 deg rotation - cart. axis [0,0,1]   

 cryst.   s(26) = (     0         -1          1      )
                  (    -1          0          1      )
                  (     0          0          1      )

 cart.    s(26) = (  1.0000000  0.0000000  0.0000000 )
                  (  0.0000000  1.0000000  0.0000000 )
                  (  0.0000000  0.0000000 -1.0000000 )


      isym = 27     inv. 180 deg rotation - cart. axis [0,1,0]   

 cryst.   s(27) = (     1          0          0      )
                  (     1          0         -1      )
                  (     1         -1          0      )

 cart.    s(27) = (  1.0000000  0.0000000  0.0000000 )
                  (  0.0000000 -1.0000000  0.0000000 )
                  (  0.0000000  0.0000000  1.0000000 )


      isym = 28     inv. 180 deg rotation - cart. axis [1,0,0]   

 cryst.   s(28) = (     0          1         -1      )
                  (     0          1          0      )
                  (    -1          1          0      )

 cart.    s(28) = ( -1.0000000  0.0000000  0.0000000 )
                  (  0.0000000  1.0000000  0.0000000 )
                  (  0.0000000  0.0000000  1.0000000 )


      isym = 29     inv. 180 deg rotation - cart. axis [1,1,0]   

 cryst.   s(29) = (     0          1          0      )
                  (     1          0          0      )
                  (     0          0          1      )

 cart.    s(29) = (  0.0000000 -1.0000000  0.0000000 )
                  ( -1.0000000  0.0000000  0.0000000 )
                  (  0.0000000  0.0000000  1.0000000 )


      isym = 30     inv. 180 deg rotation - cart. axis [1,-1,0]  

 cryst.   s(30) = (     1          0         -1      )
                  (     0          1         -1      )
                  (     0          0         -1      )

 cart.    s(30) = (  0.0000000  1.0000000  0.0000000 )
                  (  1.0000000  0.0000000  0.0000000 )
                  (  0.0000000  0.0000000  1.0000000 )


      isym = 31     inv.  90 deg rotation - cart. axis [0,0,-1]  

 cryst.   s(31) = (     0         -1          0      )
                  (     0         -1          1      )
                  (     1         -1          0      )

 cart.    s(31) = (  0.0000000 -1.0000000  0.0000000 )
                  (  1.0000000  0.0000000  0.0000000 )
                  (  0.0000000  0.0000000 -1.0000000 )


      isym = 32     inv.  90 deg rotation - cart. axis [0,0,1]   

 cryst.   s(32) = (    -1          0          1      )
                  (    -1          0          0      )
                  (    -1          1          0      )

 cart.    s(32) = (  0.0000000  1.0000000  0.0000000 )
                  ( -1.0000000  0.0000000  0.0000000 )
                  (  0.0000000  0.0000000 -1.0000000 )


      isym = 33     inv. 180 deg rotation - cart. axis [1,0,1]   

 cryst.   s(33) = (     1          0          0      )
                  (     0          0          1      )
                  (     0          1          0      )

 cart.    s(33) = (  0.0000000  0.0000000 -1.0000000 )
                  (  0.0000000  1.0000000  0.0000000 )
                  ( -1.0000000  0.0000000  0.0000000 )


      isym = 34     inv. 180 deg rotation - cart. axis [-1,0,1]  

 cryst.   s(34) = (    -1          0          0      )
                  (    -1          1          0      )
                  (    -1          0          1      )

 cart.    s(34) = (  0.0000000  0.0000000  1.0000000 )
                  (  0.0000000  1.0000000  0.0000000 )
                  (  1.0000000  0.0000000  0.0000000 )


      isym = 35     inv.  90 deg rotation - cart. axis [0,1,0]   

 cryst.   s(35) = (     0         -1          1      )
                  (     1         -1          0      )
                  (     0         -1          0      )

 cart.    s(35) = (  0.0000000  0.0000000 -1.0000000 )
                  (  0.0000000 -1.0000000  0.0000000 )
                  (  1.0000000  0.0000000  0.0000000 )


      isym = 36     inv.  90 deg rotation - cart. axis [0,-1,0]  

 cryst.   s(36) = (     0          1         -1      )
                  (     0          0         -1      )
                  (     1          0         -1      )

 cart.    s(36) = (  0.0000000  0.0000000  1.0000000 )
                  (  0.0000000 -1.0000000  0.0000000 )
                  ( -1.0000000  0.0000000  0.0000000 )


      isym = 37     inv. 180 deg rotation - cart. axis [0,1,1]   

 cryst.   s(37) = (     1         -1          0      )
                  (     0         -1          0      )
                  (     0         -1          1      )

 cart.    s(37) = (  1.0000000  0.0000000  0.0000000 )
                  (  0.0000000  0.0000000 -1.0000000 )
                  (  0.0000000 -1.0000000  0.0000000 )


      isym = 38     inv. 180 deg rotation - cart. axis [0,1,-1]  

 cryst.   s(38) = (     0          0          1      )
                  (     0          1          0      )
                  (     1          0          0      )

 cart.    s(38) = (  1.0000000  0.0000000  0.0000000 )
                  (  0.0000000  0.0000000  1.0000000 )
                  (  0.0000000  1.0000000  0.0000000 )


      isym = 39     inv.  90 deg rotation - cart. axis [-1,0,0]  

 cryst.   s(39) = (     0          0         -1      )
                  (     1          0         -1      )
                  (     0          1         -1      )

 cart.    s(39) = ( -1.0000000  0.0000000  0.0000000 )
                  (  0.0000000  0.0000000 -1.0000000 )
                  (  0.0000000  1.0000000  0.0000000 )


      isym = 40     inv.  90 deg rotation - cart. axis [1,0,0]   

 cryst.   s(40) = (    -1          1          0      )
                  (    -1          0          1      )
                  (    -1          0          0      )

 cart.    s(40) = ( -1.0000000  0.0000000  0.0000000 )
                  (  0.0000000  0.0000000  1.0000000 )
                  (  0.0000000 -1.0000000  0.0000000 )


      isym = 41     inv. 120 deg rotation - cart. axis [-1,-1,-1]

 cryst.   s(41) = (     1          0         -1      )
                  (     1         -1          0      )
                  (     1          0          0      )

 cart.    s(41) = (  0.0000000 -1.0000000  0.0000000 )
                  (  0.0000000  0.0000000 -1.0000000 )
                  ( -1.0000000  0.0000000  0.0000000 )


      isym = 42     inv. 120 deg rotation - cart. axis [-1,1,1]  

 cryst.   s(42) = (     0         -1          0      )
                  (     0          0         -1      )
                  (    -1          0          0      )

 cart.    s(42) = (  0.0000000  1.0000000  0.0000000 )
                  (  0.0000000  0.0000000 -1.0000000 )
                  (  1.0000000  0.0000000  0.0000000 )


      isym = 43     inv. 120 deg rotation - cart. axis [1,1,-1]  

 cryst.   s(43) = (    -1          0          1      )
                  (     0          0          1      )
                  (     0         -1          1      )

 cart.    s(43) = (  0.0000000 -1.0000000  0.0000000 )
                  (  0.0000000  0.0000000  1.0000000 )
                  (  1.0000000  0.0000000  0.0000000 )


      isym = 44     inv. 120 deg rotation - cart. axis [1,-1,1]  

 cryst.   s(44) = (     0          1          0      )
                  (    -1          1          0      )
                  (     0          1         -1      )

 cart.    s(44) = (  0.0000000  1.0000000  0.0000000 )
                  (  0.0000000  0.0000000  1.0000000 )
                  ( -1.0000000  0.0000000  0.0000000 )


      isym = 45     inv. 120 deg rotation - cart. axis [1,1,1]   

 cryst.   s(45) = (     0          0          1      )
                  (     0         -1          1      )
                  (    -1          0          1      )

 cart.    s(45) = (  0.0000000  0.0000000 -1.0000000 )
                  ( -1.0000000  0.0000000  0.0000000 )
                  (  0.0000000 -1.0000000  0.0000000 )


      isym = 46     inv. 120 deg rotation - cart. axis [-1,1,-1] 

 cryst.   s(46) = (     1         -1          0      )
                  (     1          0          0      )
                  (     1          0         -1      )

 cart.    s(46) = (  0.0000000  0.0000000 -1.0000000 )
                  (  1.0000000  0.0000000  0.0000000 )
                  (  0.0000000  1.0000000  0.0000000 )


      isym = 47     inv. 120 deg rotation - cart. axis [1,-1,-1] 

 cryst.   s(47) = (     0          0         -1      )
                  (    -1          0          0      )
                  (     0         -1          0      )

 cart.    s(47) = (  0.0000000  0.0000000  1.0000000 )
                  (  1.0000000  0.0000000  0.0000000 )
                  (  0.0000000 -1.0000000  0.0000000 )


      isym = 48     inv. 120 deg rotation - cart. axis [-1,-1,1] 

 cryst.   s(48) = (    -1          1          0      )
                  (     0          1         -1      )
                  (     0          1          0      )

 cart.    s(48) = (  0.0000000  0.0000000  1.0000000 )
                  ( -1.0000000  0.0000000  0.0000000 )
                  (  0.0000000  1.0000000  0.0000000 )


     point group O_h (m-3m) 
     there are 10 classes
     the character table:

       E     8C3   3C2   6C4   6C2'  i     8S6   3s_h  6S4   6s_d 
A_1g   1.00  1.00  1.00  1.00  1.00  1.00  1.00  1.00  1.00  1.00
A_2g   1.00  1.00  1.00 -1.00 -1.00  1.00  1.00  1.00 -1.00 -1.00
E_g    2.00 -1.00  2.00  0.00  0.00  2.00 -1.00  2.00  0.00  0.00
T_1g   3.00  0.00 -1.00  1.00 -1.00  3.00  0.00 -1.00  1.00 -1.00
T_2g   3.00  0.00 -1.00 -1.00  1.00  3.00  0.00 -1.00 -1.00  1.00
A_1u   1.00  1.00  1.00  1.00  1.00 -1.00 -1.00 -1.00 -1.00 -1.00
A_2u   1.00  1.00  1.00 -1.00 -1.00 -1.00 -1.00 -1.00  1.00  1.00
E_u    2.00 -1.00  2.00  0.00  0.00 -2.00  1.00 -2.00  0.00  0.00
T_1u   3.00  0.00 -1.00  1.00 -1.00 -3.00  0.00  1.00 -1.00  1.00
T_2u   3.00  0.00 -1.00 -1.00  1.00 -3.00  0.00  1.00  1.00 -1.00

     the symmetry operations in each class and the name of the first element:

     E        1
          identity                                               
     8C3     17   19   20   18   24   21   22   23
          120 deg rotation - cart. axis [-1,-1,-1]               
     3C2      2    4    3
          180 deg rotation - cart. axis [0,0,1]                  
     6C4      7    8   15   16   12   11
           90 deg rotation - cart. axis [0,0,-1]                 
     6C2'     5    6   14   13   10    9
          180 deg rotation - cart. axis [1,1,0]                  
     i       25
          inversion                                              
     8S6     41   43   44   42   48   45   46   47
          inv. 120 deg rotation - cart. axis [-1,-1,-1]          
     3s_h    26   28   27
          inv. 180 deg rotation - cart. axis [0,0,1]             
     6S4     31   32   39   40   36   35
          inv.  90 deg rotation - cart. axis [0,0,-1]            
     6s_d    29   30   38   37   34   33
          inv. 180 deg rotation - cart. axis [1,1,0]             

   Cartesian axes

     site n.     atom                  positions (alat units)
         1           Al  tau(   1) = (   0.0000000   0.0000000   0.0000000  )

   Crystallographic axes

     site n.     atom                  positions (cryst. coord.)
         1           Al  tau(   1) = (  0.0000000  0.0000000  0.0000000  )

     number of k points=   408  Marzari-Vanderbilt smearing, width (Ry)=  0.0800
                       cart. coord. in units 2pi/alat
        k(    1) = (  -0.0312500   0.0312500   0.0312500), wk =   0.0009766
        k(    2) = (  -0.0937500   0.0937500  -0.0312500), wk =   0.0029297
        k(    3) = (  -0.1562500   0.1562500  -0.0937500), wk =   0.0029297
        k(    4) = (  -0.2187500   0.2187500  -0.1562500), wk =   0.0029297
        k(    5) = (  -0.2812500   0.2812500  -0.2187500), wk =   0.0029297
        k(    6) = (  -0.3437500   0.3437500  -0.2812500), wk =   0.0029297
        k(    7) = (  -0.4062500   0.4062500  -0.3437500), wk =   0.0029297
        k(    8) = (  -0.4687500   0.4687500  -0.4062500), wk =   0.0029297
        k(    9) = (   0.4687500  -0.4687500   0.5312500), wk =   0.0029297
        k(   10) = (   0.4062500  -0.4062500   0.4687500), wk =   0.0029297
        k(   11) = (   0.3437500  -0.3437500   0.4062500), wk =   0.0029297
        k(   12) = (   0.2812500  -0.2812500   0.3437500), wk =   0.0029297
        k(   13) = (   0.2187500  -0.2187500   0.2812500), wk =   0.0029297
        k(   14) = (   0.1562500  -0.1562500   0.2187500), wk =   0.0029297
        k(   15) = (   0.0937500  -0.0937500   0.1562500), wk =   0.0029297
        k(   16) = (   0.0312500  -0.0312500   0.0937500), wk =   0.0029297
        k(   17) = (  -0.0312500   0.1562500   0.0312500), wk =   0.0029297
        k(   18) = (  -0.0937500   0.2187500  -0.0312500), wk =   0.0058594
        k(   19) = (  -0.1562500   0.2812500  -0.0937500), wk =   0.0058594
        k(   20) = (  -0.2187500   0.3437500  -0.1562500), wk =   0.0058594
        k(   21) = (  -0.2812500   0.4062500  -0.2187500), wk =   0.0058594
        k(   22) = (  -0.3437500   0.4687500  -0.2812500), wk =   0.0058594
        k(   23) = (  -0.4062500   0.5312500  -0.3437500), wk =   0.0058594
        k(   24) = (   0.5312500  -0.4062500   0.5937500), wk =   0.0058594
        k(   25) = (   0.4687500  -0.3437500   0.5312500), wk =   0.0058594
        k(   26) = (   0.4062500  -0.2812500   0.4687500), wk =   0.0058594
        k(   27) = (   0.3437500  -0.2187500   0.4062500), wk =   0.0058594
        k(   28) = (   0.2812500  -0.1562500   0.3437500), wk =   0.0058594
        k(   29) = (   0.2187500  -0.0937500   0.2812500), wk =   0.0058594
        k(   30) = (   0.1562500  -0.0312500   0.2187500), wk =   0.0058594
        k(   31) = (   0.0937500   0.0312500   0.1562500), wk =   0.0058594
        k(   32) = (  -0.0312500   0.2812500   0.0312500), wk =   0.0029297
        k(   33) = (  -0.0937500   0.3437500  -0.0312500), wk =   0.0058594
        k(   34) = (  -0.1562500   0.4062500  -0.0937500), wk =   0.0058594
        k(   35) = (  -0.2187500   0.4687500  -0.1562500), wk =   0.0058594
        k(   36) = (  -0.2812500   0.5312500  -0.2187500), wk =   0.0058594
        k(   37) = (  -0.3437500   0.5937500  -0.2812500), wk =   0.0058594
        k(   38) = (   0.5937500  -0.3437500   0.6562500), wk =   0.0058594
        k(   39) = (   0.5312500  -0.2812500   0.5937500), wk =   0.0058594
        k(   40) = (   0.4687500  -0.2187500   0.5312500), wk =   0.0058594
        k(   41) = (   0.4062500  -0.1562500   0.4687500), wk =   0.0058594
        k(   42) = (   0.3437500  -0.0937500   0.4062500), wk =   0.0058594
        k(   43) = (   0.2812500  -0.0312500   0.3437500), wk =   0.0058594
        k(   44) = (   0.2187500   0.0312500   0.2812500), wk =   0.0058594
        k(   45) = (   0.1562500   0.0937500   0.2187500), wk =   0.0058594
        k(   46) = (  -0.0312500   0.4062500   0.0312500), wk =   0.0029297
        k(   47) = (  -0.0937500   0.4687500  -0.0312500), wk =   0.0058594
        k(   48) = (  -0.1562500   0.5312500  -0.0937500), wk =   0.0058594
        k(   49) = (  -0.2187500   0.5937500  -0.1562500), wk =   0.0058594
        k(   50) = (  -0.2812500   0.6562500  -0.2187500), wk =   0.0058594
        k(   51) = (   0.6562500  -0.2812500   0.7187500), wk =   0.0058594
        k(   52) = (   0.5937500  -0.2187500   0.6562500), wk =   0.0058594
        k(   53) = (   0.5312500  -0.1562500   0.5937500), wk =   0.0058594
        k(   54) = (   0.4687500  -0.0937500   0.5312500), wk =   0.0058594
        k(   55) = (   0.4062500  -0.0312500   0.4687500), wk =   0.0058594
        k(   56) = (   0.3437500   0.0312500   0.4062500), wk =   0.0058594
        k(   57) = (   0.2812500   0.0937500   0.3437500), wk =   0.0058594
        k(   58) = (   0.2187500   0.1562500   0.2812500), wk =   0.0058594
        k(   59) = (  -0.0312500   0.5312500   0.0312500), wk =   0.0029297
        k(   60) = (  -0.0937500   0.5937500  -0.0312500), wk =   0.0058594
        k(   61) = (  -0.1562500   0.6562500  -0.0937500), wk =   0.0058594
        k(   62) = (  -0.2187500   0.7187500  -0.1562500), wk =   0.0058594
        k(   63) = (   0.7187500  -0.2187500   0.7812500), wk =   0.0058594
        k(   64) = (   0.6562500  -0.1562500   0.7187500), wk =   0.0058594
        k(   65) = (   0.5937500  -0.0937500   0.6562500), wk =   0.0058594
        k(   66) = (   0.5312500  -0.0312500   0.5937500), wk =   0.0058594
        k(   67) = (   0.4687500   0.0312500   0.5312500), wk =   0.0058594
        k(   68) = (   0.4062500   0.0937500   0.4687500), wk =   0.0058594
        k(   69) = (   0.3437500   0.1562500   0.4062500), wk =   0.0058594
        k(   70) = (   0.2812500   0.2187500   0.3437500), wk =   0.0058594
        k(   71) = (  -0.0312500   0.6562500   0.0312500), wk =   0.0029297
        k(   72) = (  -0.0937500   0.7187500  -0.0312500), wk =   0.0058594
        k(   73) = (  -0.1562500   0.7812500  -0.0937500), wk =   0.0058594
        k(   74) = (   0.7812500  -0.1562500   0.8437500), wk =   0.0058594
        k(   75) = (   0.7187500  -0.0937500   0.7812500), wk =   0.0058594
        k(   76) = (   0.6562500  -0.0312500   0.7187500), wk =   0.0058594
        k(   77) = (   0.5937500   0.0312500   0.6562500), wk =   0.0058594
        k(   78) = (   0.5312500   0.0937500   0.5937500), wk =   0.0058594
        k(   79) = (   0.4687500   0.1562500   0.5312500), wk =   0.0058594
        k(   80) = (   0.4062500   0.2187500   0.4687500), wk =   0.0058594
        k(   81) = (   0.3437500   0.2812500   0.4062500), wk =   0.0058594
        k(   82) = (  -0.0312500   0.7812500   0.0312500), wk =   0.0029297
        k(   83) = (  -0.0937500   0.8437500  -0.0312500), wk =   0.0058594
        k(   84) = (   0.8437500  -0.0937500   0.9062500), wk =   0.0058594
        k(   85) = (   0.7812500  -0.0312500   0.8437500), wk =   0.0058594
        k(   86) = (   0.7187500   0.0312500   0.7812500), wk =   0.0058594
        k(   87) = (   0.6562500   0.0937500   0.7187500), wk =   0.0058594
        k(   88) = (   0.5937500   0.1562500   0.6562500), wk =   0.0058594
        k(   89) = (   0.5312500   0.2187500   0.5937500), wk =   0.0058594
        k(   90) = (   0.4687500   0.2812500   0.5312500), wk =   0.0058594
        k(   91) = (   0.4062500   0.3437500   0.4687500), wk =   0.0058594
        k(   92) = (  -0.0312500   0.9062500   0.0312500), wk =   0.0029297
        k(   93) = (   0.9062500  -0.0312500   0.9687500), wk =   0.0058594
        k(   94) = (   0.8437500   0.0312500   0.9062500), wk =   0.0058594
        k(   95) = (   0.7812500   0.0937500   0.8437500), wk =   0.0058594
        k(   96) = (   0.7187500   0.1562500   0.7812500), wk =   0.0058594
        k(   97) = (   0.6562500   0.2187500   0.7187500), wk =   0.0058594
        k(   98) = (   0.5937500   0.2812500   0.6562500), wk =   0.0058594
        k(   99) = (   0.5312500   0.3437500   0.5937500), wk =   0.0058594
        k(  100) = (   0.4687500   0.4062500   0.5312500), wk =   0.0058594
        k(  101) = (  -0.0312500  -0.9687500   0.0312500), wk =   0.0029297
        k(  102) = (  -0.0937500  -0.9062500  -0.0312500), wk =   0.0058594
        k(  103) = (  -0.1562500  -0.8437500  -0.0937500), wk =   0.0058594
        k(  104) = (  -0.2187500  -0.7812500  -0.1562500), wk =   0.0058594
        k(  105) = (  -0.2812500  -0.7187500  -0.2187500), wk =   0.0058594
        k(  106) = (  -0.3437500  -0.6562500  -0.2812500), wk =   0.0058594
        k(  107) = (  -0.4062500  -0.5937500  -0.3437500), wk =   0.0058594
        k(  108) = (  -0.0312500  -0.8437500   0.0312500), wk =   0.0029297
        k(  109) = (  -0.0937500  -0.7812500  -0.0312500), wk =   0.0058594
        k(  110) = (  -0.1562500  -0.7187500  -0.0937500), wk =   0.0058594
        k(  111) = (  -0.2187500  -0.6562500  -0.1562500), wk =   0.0058594
        k(  112) = (  -0.2812500  -0.5937500  -0.2187500), wk =   0.0058594
        k(  113) = (  -0.3437500  -0.5312500  -0.2812500), wk =   0.0058594
        k(  114) = (  -0.0312500  -0.7187500   0.0312500), wk =   0.0029297
        k(  115) = (  -0.0937500  -0.6562500  -0.0312500), wk =   0.0058594
        k(  116) = (  -0.1562500  -0.5937500  -0.0937500), wk =   0.0058594
        k(  117) = (  -0.2187500  -0.5312500  -0.1562500), wk =   0.0058594
        k(  118) = (  -0.2812500  -0.4687500  -0.2187500), wk =   0.0058594
        k(  119) = (  -0.0312500  -0.5937500   0.0312500), wk =   0.0029297
        k(  120) = (  -0.0937500  -0.5312500  -0.0312500), wk =   0.0058594
        k(  121) = (  -0.1562500  -0.4687500  -0.0937500), wk =   0.0058594
        k(  122) = (  -0.2187500  -0.4062500  -0.1562500), wk =   0.0058594
        k(  123) = (  -0.0312500  -0.4687500   0.0312500), wk =   0.0029297
        k(  124) = (  -0.0937500  -0.4062500  -0.0312500), wk =   0.0058594
        k(  125) = (  -0.1562500  -0.3437500  -0.0937500), wk =   0.0058594
        k(  126) = (  -0.0312500  -0.3437500   0.0312500), wk =   0.0029297
        k(  127) = (  -0.0937500  -0.2812500  -0.0312500), wk =   0.0058594
        k(  128) = (  -0.0312500  -0.2187500   0.0312500), wk =   0.0029297
        k(  129) = (  -0.0937500   0.0937500   0.0937500), wk =   0.0009766
        k(  130) = (  -0.1562500   0.1562500   0.0312500), wk =   0.0029297
        k(  131) = (  -0.2187500   0.2187500  -0.0312500), wk =   0.0029297
        k(  132) = (  -0.2812500   0.2812500  -0.0937500), wk =   0.0029297
        k(  133) = (  -0.3437500   0.3437500  -0.1562500), wk =   0.0029297
        k(  134) = (  -0.4062500   0.4062500  -0.2187500), wk =   0.0029297
        k(  135) = (  -0.4687500   0.4687500  -0.2812500), wk =   0.0029297
        k(  136) = (   0.4687500  -0.4687500   0.6562500), wk =   0.0029297
        k(  137) = (   0.4062500  -0.4062500   0.5937500), wk =   0.0029297
        k(  138) = (   0.3437500  -0.3437500   0.5312500), wk =   0.0029297
        k(  139) = (   0.2812500  -0.2812500   0.4687500), wk =   0.0029297
        k(  140) = (   0.2187500  -0.2187500   0.4062500), wk =   0.0029297
        k(  141) = (   0.1562500  -0.1562500   0.3437500), wk =   0.0029297
        k(  142) = (   0.0937500  -0.0937500   0.2812500), wk =   0.0029297
        k(  143) = (  -0.0937500   0.2187500   0.0937500), wk =   0.0029297
        k(  144) = (  -0.1562500   0.2812500   0.0312500), wk =   0.0058594
        k(  145) = (  -0.2187500   0.3437500  -0.0312500), wk =   0.0058594
        k(  146) = (  -0.2812500   0.4062500  -0.0937500), wk =   0.0058594
        k(  147) = (  -0.3437500   0.4687500  -0.1562500), wk =   0.0058594
        k(  148) = (  -0.4062500   0.5312500  -0.2187500), wk =   0.0058594
        k(  149) = (   0.5312500  -0.4062500   0.7187500), wk =   0.0058594
        k(  150) = (   0.4687500  -0.3437500   0.6562500), wk =   0.0058594
        k(  151) = (   0.4062500  -0.2812500   0.5937500), wk =   0.0058594
        k(  152) = (   0.3437500  -0.2187500   0.5312500), wk =   0.0058594
        k(  153) = (   0.2812500  -0.1562500   0.4687500), wk =   0.0058594
        k(  154) = (   0.2187500  -0.0937500   0.4062500), wk =   0.0058594
        k(  155) = (   0.1562500  -0.0312500   0.3437500), wk =   0.0058594
        k(  156) = (  -0.0937500   0.3437500   0.0937500), wk =   0.0029297
        k(  157) = (  -0.1562500   0.4062500   0.0312500), wk =   0.0058594
        k(  158) = (  -0.2187500   0.4687500  -0.0312500), wk =   0.0058594
        k(  159) = (  -0.2812500   0.5312500  -0.0937500), wk =   0.0058594
        k(  160) = (  -0.3437500   0.5937500  -0.1562500), wk =   0.0058594
        k(  161) = (   0.5937500  -0.3437500   0.7812500), wk =   0.0058594
        k(  162) = (   0.5312500  -0.2812500   0.7187500), wk =   0.0058594
        k(  163) = (   0.4687500  -0.2187500   0.6562500), wk =   0.0058594
        k(  164) = (   0.4062500  -0.1562500   0.5937500), wk =   0.0058594
        k(  165) = (   0.3437500  -0.0937500   0.5312500), wk =   0.0058594
        k(  166) = (   0.2812500  -0.0312500   0.4687500), wk =   0.0058594
        k(  167) = (   0.2187500   0.0312500   0.4062500), wk =   0.0058594
        k(  168) = (  -0.0937500   0.4687500   0.0937500), wk =   0.0029297
        k(  169) = (  -0.1562500   0.5312500   0.0312500), wk =   0.0058594
        k(  170) = (  -0.2187500   0.5937500  -0.0312500), wk =   0.0058594
        k(  171) = (  -0.2812500   0.6562500  -0.0937500), wk =   0.0058594
        k(  172) = (   0.6562500  -0.2812500   0.8437500), wk =   0.0058594
        k(  173) = (   0.5937500  -0.2187500   0.7812500), wk =   0.0058594
        k(  174) = (   0.5312500  -0.1562500   0.7187500), wk =   0.0058594
        k(  175) = (   0.4687500  -0.0937500   0.6562500), wk =   0.0058594
        k(  176) = (   0.4062500  -0.0312500   0.5937500), wk =   0.0058594
        k(  177) = (   0.3437500   0.0312500   0.5312500), wk =   0.0058594
        k(  178) = (   0.2812500   0.0937500   0.4687500), wk =   0.0058594
        k(  179) = (  -0.0937500   0.5937500   0.0937500), wk =   0.0029297
        k(  180) = (  -0.1562500   0.6562500   0.0312500), wk =   0.0058594
        k(  181) = (  -0.2187500   0.7187500  -0.0312500), wk =   0.0058594
        k(  182) = (   0.7187500  -0.2187500   0.9062500), wk =   0.0058594
        k(  183) = (   0.6562500  -0.1562500   0.8437500), wk =   0.0058594
        k(  184) = (   0.5937500  -0.0937500   0.7812500), wk =   0.0058594
        k(  185) = (   0.5312500  -0.0312500   0.7187500), wk =   0.0058594
        k(  186) = (   0.4687500   0.0312500   0.6562500), wk =   0.0058594
        k(  187) = (   0.4062500   0.0937500   0.5937500), wk =   0.0058594
        k(  188) = (   0.3437500   0.1562500   0.5312500), wk =   0.0058594
        k(  189) = (  -0.0937500   0.7187500   0.0937500), wk =   0.0029297
        k(  190) = (  -0.1562500   0.7812500   0.0312500), wk =   0.0058594
        k(  191) = (   0.7812500  -0.1562500   0.9687500), wk =   0.0058594
        k(  192) = (   0.7187500  -0.0937500   0.9062500), wk =   0.0058594
        k(  193) = (   0.6562500  -0.0312500   0.8437500), wk =   0.0058594
        k(  194) = (   0.5937500   0.0312500   0.7812500), wk =   0.0058594
        k(  195) = (   0.5312500   0.0937500   0.7187500), wk =   0.0058594
        k(  196) = (   0.4687500   0.1562500   0.6562500), wk =   0.0058594
        k(  197) = (   0.4062500   0.2187500   0.5937500), wk =   0.0058594
        k(  198) = (  -0.0937500   0.8437500   0.0937500), wk =   0.0029297
        k(  199) = (   0.8437500  -0.0937500   1.0312500), wk =   0.0058594
        k(  200) = (   0.7812500  -0.0312500   0.9687500), wk =   0.0058594
        k(  201) = (   0.7187500   0.0312500   0.9062500), wk =   0.0058594
        k(  202) = (   0.6562500   0.0937500   0.8437500), wk =   0.0058594
        k(  203) = (   0.5937500   0.1562500   0.7812500), wk =   0.0058594
        k(  204) = (   0.5312500   0.2187500   0.7187500), wk =   0.0058594
        k(  205) = (   0.4687500   0.2812500   0.6562500), wk =   0.0058594
        k(  206) = (  -0.0937500  -1.0312500   0.0937500), wk =   0.0029297
        k(  207) = (  -0.1562500  -0.9687500   0.0312500), wk =   0.0058594
        k(  208) = (  -0.2187500  -0.9062500  -0.0312500), wk =   0.0058594
        k(  209) = (  -0.2812500  -0.8437500  -0.0937500), wk =   0.0058594
        k(  210) = (  -0.3437500  -0.7812500  -0.1562500), wk =   0.0058594
        k(  211) = (  -0.4062500  -0.7187500  -0.2187500), wk =   0.0058594
        k(  212) = (  -0.0937500  -0.9062500   0.0937500), wk =   0.0029297
        k(  213) = (  -0.1562500  -0.8437500   0.0312500), wk =   0.0058594
        k(  214) = (  -0.2187500  -0.7812500  -0.0312500), wk =   0.0058594
        k(  215) = (  -0.2812500  -0.7187500  -0.0937500), wk =   0.0058594
        k(  216) = (  -0.3437500  -0.6562500  -0.1562500), wk =   0.0058594
        k(  217) = (  -0.0937500  -0.7812500   0.0937500), wk =   0.0029297
        k(  218) = (  -0.1562500  -0.7187500   0.0312500), wk =   0.0058594
        k(  219) = (  -0.2187500  -0.6562500  -0.0312500), wk =   0.0058594
        k(  220) = (  -0.2812500  -0.5937500  -0.0937500), wk =   0.0058594
        k(  221) = (  -0.0937500  -0.6562500   0.0937500), wk =   0.0029297
        k(  222) = (  -0.1562500  -0.5937500   0.0312500), wk =   0.0058594
        k(  223) = (  -0.2187500  -0.5312500  -0.0312500), wk =   0.0058594
        k(  224) = (  -0.0937500  -0.5312500   0.0937500), wk =   0.0029297
        k(  225) = (  -0.1562500  -0.4687500   0.0312500), wk =   0.0058594
        k(  226) = (  -0.0937500  -0.4062500   0.0937500), wk =   0.0029297
        k(  227) = (  -0.1562500   0.1562500   0.1562500), wk =   0.0009766
        k(  228) = (  -0.2187500   0.2187500   0.0937500), wk =   0.0029297
        k(  229) = (  -0.2812500   0.2812500   0.0312500), wk =   0.0029297
        k(  230) = (  -0.3437500   0.3437500  -0.0312500), wk =   0.0029297
        k(  231) = (  -0.4062500   0.4062500  -0.0937500), wk =   0.0029297
        k(  232) = (  -0.4687500   0.4687500  -0.1562500), wk =   0.0029297
        k(  233) = (   0.4687500  -0.4687500   0.7812500), wk =   0.0029297
        k(  234) = (   0.4062500  -0.4062500   0.7187500), wk =   0.0029297
        k(  235) = (   0.3437500  -0.3437500   0.6562500), wk =   0.0029297
        k(  236) = (   0.2812500  -0.2812500   0.5937500), wk =   0.0029297
        k(  237) = (   0.2187500  -0.2187500   0.5312500), wk =   0.0029297
        k(  238) = (   0.1562500  -0.1562500   0.4687500), wk =   0.0029297
        k(  239) = (  -0.1562500   0.2812500   0.1562500), wk =   0.0029297
        k(  240) = (  -0.2187500   0.3437500   0.0937500), wk =   0.0058594
        k(  241) = (  -0.2812500   0.4062500   0.0312500), wk =   0.0058594
        k(  242) = (  -0.3437500   0.4687500  -0.0312500), wk =   0.0058594
        k(  243) = (  -0.4062500   0.5312500  -0.0937500), wk =   0.0058594
        k(  244) = (   0.5312500  -0.4062500   0.8437500), wk =   0.0058594
        k(  245) = (   0.4687500  -0.3437500   0.7812500), wk =   0.0058594
        k(  246) = (   0.4062500  -0.2812500   0.7187500), wk =   0.0058594
        k(  247) = (   0.3437500  -0.2187500   0.6562500), wk =   0.0058594
        k(  248) = (   0.2812500  -0.1562500   0.5937500), wk =   0.0058594
        k(  249) = (   0.2187500  -0.0937500   0.5312500), wk =   0.0058594
        k(  250) = (  -0.1562500   0.4062500   0.1562500), wk =   0.0029297
        k(  251) = (  -0.2187500   0.4687500   0.0937500), wk =   0.0058594
        k(  252) = (  -0.2812500   0.5312500   0.0312500), wk =   0.0058594
        k(  253) = (  -0.3437500   0.5937500  -0.0312500), wk =   0.0058594
        k(  254) = (   0.5937500  -0.3437500   0.9062500), wk =   0.0058594
        k(  255) = (   0.5312500  -0.2812500   0.8437500), wk =   0.0058594
        k(  256) = (   0.4687500  -0.2187500   0.7812500), wk =   0.0058594
        k(  257) = (   0.4062500  -0.1562500   0.7187500), wk =   0.0058594
        k(  258) = (   0.3437500  -0.0937500   0.6562500), wk =   0.0058594
        k(  259) = (   0.2812500  -0.0312500   0.5937500), wk =   0.0058594
        k(  260) = (  -0.1562500   0.5312500   0.1562500), wk =   0.0029297
        k(  261) = (  -0.2187500   0.5937500   0.0937500), wk =   0.0058594
        k(  262) = (  -0.2812500   0.6562500   0.0312500), wk =   0.0058594
        k(  263) = (   0.6562500  -0.2812500   0.9687500), wk =   0.0058594
        k(  264) = (   0.5937500  -0.2187500   0.9062500), wk =   0.0058594
        k(  265) = (   0.5312500  -0.1562500   0.8437500), wk =   0.0058594
        k(  266) = (   0.4687500  -0.0937500   0.7812500), wk =   0.0058594
        k(  267) = (   0.4062500  -0.0312500   0.7187500), wk =   0.0058594
        k(  268) = (   0.3437500   0.0312500   0.6562500), wk =   0.0058594
        k(  269) = (  -0.1562500   0.6562500   0.1562500), wk =   0.0029297
        k(  270) = (  -0.2187500   0.7187500   0.0937500), wk =   0.0058594
        k(  271) = (   0.7187500  -0.2187500   1.0312500), wk =   0.0058594
        k(  272) = (   0.6562500  -0.1562500   0.9687500), wk =   0.0058594
        k(  273) = (   0.5937500  -0.0937500   0.9062500), wk =   0.0058594
        k(  274) = (   0.5312500  -0.0312500   0.8437500), wk =   0.0058594
        k(  275) = (   0.4687500   0.0312500   0.7812500), wk =   0.0058594
        k(  276) = (   0.4062500   0.0937500   0.7187500), wk =   0.0058594
        k(  277) = (  -0.1562500   0.7812500   0.1562500), wk =   0.0029297
        k(  278) = (   0.7812500  -0.1562500   1.0937500), wk =   0.0058594
        k(  279) = (   0.7187500  -0.0937500   1.0312500), wk =   0.0058594
        k(  280) = (   0.6562500  -0.0312500   0.9687500), wk =   0.0058594
        k(  281) = (   0.5937500   0.0312500   0.9062500), wk =   0.0058594
        k(  282) = (   0.5312500   0.0937500   0.8437500), wk =   0.0058594
        k(  283) = (   0.4687500   0.1562500   0.7812500), wk =   0.0058594
        k(  284) = (  -0.1562500  -1.0937500   0.1562500), wk =   0.0029297
        k(  285) = (  -0.2187500  -1.0312500   0.0937500), wk =   0.0058594
        k(  286) = (  -0.2812500  -0.9687500   0.0312500), wk =   0.0058594
        k(  287) = (  -0.3437500  -0.9062500  -0.0312500), wk =   0.0058594
        k(  288) = (  -0.4062500  -0.8437500  -0.0937500), wk =   0.0058594
        k(  289) = (  -0.1562500  -0.9687500   0.1562500), wk =   0.0029297
        k(  290) = (  -0.2187500  -0.9062500   0.0937500), wk =   0.0058594
        k(  291) = (  -0.2812500  -0.8437500   0.0312500), wk =   0.0058594
        k(  292) = (  -0.3437500  -0.7812500  -0.0312500), wk =   0.0058594
        k(  293) = (  -0.1562500  -0.8437500   0.1562500), wk =   0.0029297
        k(  294) = (  -0.2187500  -0.7812500   0.0937500), wk =   0.0058594
        k(  295) = (  -0.2812500  -0.7187500   0.0312500), wk =   0.0058594
        k(  296) = (  -0.1562500  -0.7187500   0.1562500), wk =   0.0029297
        k(  297) = (  -0.2187500  -0.6562500   0.0937500), wk =   0.0058594
        k(  298) = (  -0.1562500  -0.5937500   0.1562500), wk =   0.0029297
        k(  299) = (  -0.2187500   0.2187500   0.2187500), wk =   0.0009766
        k(  300) = (  -0.2812500   0.2812500   0.1562500), wk =   0.0029297
        k(  301) = (  -0.3437500   0.3437500   0.0937500), wk =   0.0029297
        k(  302) = (  -0.4062500   0.4062500   0.0312500), wk =   0.0029297
        k(  303) = (  -0.4687500   0.4687500  -0.0312500), wk =   0.0029297
        k(  304) = (   0.4687500  -0.4687500   0.9062500), wk =   0.0029297
        k(  305) = (   0.4062500  -0.4062500   0.8437500), wk =   0.0029297
        k(  306) = (   0.3437500  -0.3437500   0.7812500), wk =   0.0029297
        k(  307) = (   0.2812500  -0.2812500   0.7187500), wk =   0.0029297
        k(  308) = (   0.2187500  -0.2187500   0.6562500), wk =   0.0029297
        k(  309) = (  -0.2187500   0.3437500   0.2187500), wk =   0.0029297
        k(  310) = (  -0.2812500   0.4062500   0.1562500), wk =   0.0058594
        k(  311) = (  -0.3437500   0.4687500   0.0937500), wk =   0.0058594
        k(  312) = (  -0.4062500   0.5312500   0.0312500), wk =   0.0058594
        k(  313) = (   0.5312500  -0.4062500   0.9687500), wk =   0.0058594
        k(  314) = (   0.4687500  -0.3437500   0.9062500), wk =   0.0058594
        k(  315) = (   0.4062500  -0.2812500   0.8437500), wk =   0.0058594
        k(  316) = (   0.3437500  -0.2187500   0.7812500), wk =   0.0058594
        k(  317) = (   0.2812500  -0.1562500   0.7187500), wk =   0.0058594
        k(  318) = (  -0.2187500   0.4687500   0.2187500), wk =   0.0029297
        k(  319) = (  -0.2812500   0.5312500   0.1562500), wk =   0.0058594
        k(  320) = (  -0.3437500   0.5937500   0.0937500), wk =   0.0058594
        k(  321) = (   0.5937500  -0.3437500   1.0312500), wk =   0.0058594
        k(  322) = (   0.5312500  -0.2812500   0.9687500), wk =   0.0058594
        k(  323) = (   0.4687500  -0.2187500   0.9062500), wk =   0.0058594
        k(  324) = (   0.4062500  -0.1562500   0.8437500), wk =   0.0058594
        k(  325) = (   0.3437500  -0.0937500   0.7812500), wk =   0.0058594
        k(  326) = (  -0.2187500   0.5937500   0.2187500), wk =   0.0029297
        k(  327) = (  -0.2812500   0.6562500   0.1562500), wk =   0.0058594
        k(  328) = (   0.6562500  -0.2812500   1.0937500), wk =   0.0058594
        k(  329) = (   0.5937500  -0.2187500   1.0312500), wk =   0.0058594
        k(  330) = (   0.5312500  -0.1562500   0.9687500), wk =   0.0058594
        k(  331) = (   0.4687500  -0.0937500   0.9062500), wk =   0.0058594
        k(  332) = (   0.4062500  -0.0312500   0.8437500), wk =   0.0058594
        k(  333) = (  -0.2187500   0.7187500   0.2187500), wk =   0.0029297
        k(  334) = (   0.7187500  -0.2187500   1.1562500), wk =   0.0058594
        k(  335) = (   0.6562500  -0.1562500   1.0937500), wk =   0.0058594
        k(  336) = (   0.5937500  -0.0937500   1.0312500), wk =   0.0058594
        k(  337) = (   0.5312500  -0.0312500   0.9687500), wk =   0.0058594
        k(  338) = (   0.4687500   0.0312500   0.9062500), wk =   0.0058594
        k(  339) = (  -0.2187500  -1.1562500   0.2187500), wk =   0.0029297
        k(  340) = (  -0.2812500  -1.0937500   0.1562500), wk =   0.0058594
        k(  341) = (  -0.3437500  -1.0312500   0.0937500), wk =   0.0058594
        k(  342) = (  -0.4062500  -0.9687500   0.0312500), wk =   0.0058594
        k(  343) = (  -0.2187500  -1.0312500   0.2187500), wk =   0.0029297
        k(  344) = (  -0.2812500  -0.9687500   0.1562500), wk =   0.0058594
        k(  345) = (  -0.3437500  -0.9062500   0.0937500), wk =   0.0058594
        k(  346) = (  -0.2187500  -0.9062500   0.2187500), wk =   0.0029297
        k(  347) = (  -0.2812500  -0.8437500   0.1562500), wk =   0.0058594
        k(  348) = (  -0.2187500  -0.7812500   0.2187500), wk =   0.0029297
        k(  349) = (  -0.2812500   0.2812500   0.2812500), wk =   0.0009766
        k(  350) = (  -0.3437500   0.3437500   0.2187500), wk =   0.0029297
        k(  351) = (  -0.4062500   0.4062500   0.1562500), wk =   0.0029297
        k(  352) = (  -0.4687500   0.4687500   0.0937500), wk =   0.0029297
        k(  353) = (   0.4687500  -0.4687500   1.0312500), wk =   0.0029297
        k(  354) = (   0.4062500  -0.4062500   0.9687500), wk =   0.0029297
        k(  355) = (   0.3437500  -0.3437500   0.9062500), wk =   0.0029297
        k(  356) = (   0.2812500  -0.2812500   0.8437500), wk =   0.0029297
        k(  357) = (  -0.2812500   0.4062500   0.2812500), wk =   0.0029297
        k(  358) = (  -0.3437500   0.4687500   0.2187500), wk =   0.0058594
        k(  359) = (  -0.4062500   0.5312500   0.1562500), wk =   0.0058594
        k(  360) = (   0.5312500  -0.4062500   1.0937500), wk =   0.0058594
        k(  361) = (   0.4687500  -0.3437500   1.0312500), wk =   0.0058594
        k(  362) = (   0.4062500  -0.2812500   0.9687500), wk =   0.0058594
        k(  363) = (   0.3437500  -0.2187500   0.9062500), wk =   0.0058594
        k(  364) = (  -0.2812500   0.5312500   0.2812500), wk =   0.0029297
        k(  365) = (  -0.3437500   0.5937500   0.2187500), wk =   0.0058594
        k(  366) = (   0.5937500  -0.3437500   1.1562500), wk =   0.0058594
        k(  367) = (   0.5312500  -0.2812500   1.0937500), wk =   0.0058594
        k(  368) = (   0.4687500  -0.2187500   1.0312500), wk =   0.0058594
        k(  369) = (   0.4062500  -0.1562500   0.9687500), wk =   0.0058594
        k(  370) = (  -0.2812500   0.6562500   0.2812500), wk =   0.0029297
        k(  371) = (   0.6562500  -0.2812500   1.2187500), wk =   0.0058594
        k(  372) = (   0.5937500  -0.2187500   1.1562500), wk =   0.0058594
        k(  373) = (   0.5312500  -0.1562500   1.0937500), wk =   0.0058594
        k(  374) = (   0.4687500  -0.0937500   1.0312500), wk =   0.0058594
        k(  375) = (  -0.2812500  -1.2187500   0.2812500), wk =   0.0029297
        k(  376) = (  -0.3437500  -1.1562500   0.2187500), wk =   0.0058594
        k(  377) = (  -0.4062500  -1.0937500   0.1562500), wk =   0.0058594
        k(  378) = (  -0.2812500  -1.0937500   0.2812500), wk =   0.0029297
        k(  379) = (  -0.3437500  -1.0312500   0.2187500), wk =   0.0058594
        k(  380) = (  -0.2812500  -0.9687500   0.2812500), wk =   0.0029297
        k(  381) = (  -0.3437500   0.3437500   0.3437500), wk =   0.0009766
        k(  382) = (  -0.4062500   0.4062500   0.2812500), wk =   0.0029297
        k(  383) = (  -0.4687500   0.4687500   0.2187500), wk =   0.0029297
        k(  384) = (   0.4687500  -0.4687500   1.1562500), wk =   0.0029297
        k(  385) = (   0.4062500  -0.4062500   1.0937500), wk =   0.0029297
        k(  386) = (   0.3437500  -0.3437500   1.0312500), wk =   0.0029297
        k(  387) = (  -0.3437500   0.4687500   0.3437500), wk =   0.0029297
        k(  388) = (  -0.4062500   0.5312500   0.2812500), wk =   0.0058594
        k(  389) = (   0.5312500  -0.4062500   1.2187500), wk =   0.0058594
        k(  390) = (   0.4687500  -0.3437500   1.1562500), wk =   0.0058594
        k(  391) = (   0.4062500  -0.2812500   1.0937500), wk =   0.0058594
        k(  392) = (  -0.3437500   0.5937500   0.3437500), wk =   0.0029297
        k(  393) = (   0.5937500  -0.3437500   1.2812500), wk =   0.0058594
        k(  394) = (   0.5312500  -0.2812500   1.2187500), wk =   0.0058594
        k(  395) = (   0.4687500  -0.2187500   1.1562500), wk =   0.0058594
        k(  396) = (  -0.3437500  -1.2812500   0.3437500), wk =   0.0029297
        k(  397) = (  -0.4062500  -1.2187500   0.2812500), wk =   0.0058594
        k(  398) = (  -0.3437500  -1.1562500   0.3437500), wk =   0.0029297
        k(  399) = (  -0.4062500   0.4062500   0.4062500), wk =   0.0009766
        k(  400) = (  -0.4687500   0.4687500   0.3437500), wk =   0.0029297
        k(  401) = (   0.4687500  -0.4687500   1.2812500), wk =   0.0029297
        k(  402) = (   0.4062500  -0.4062500   1.2187500), wk =   0.0029297
        k(  403) = (  -0.4062500   0.5312500   0.4062500), wk =   0.0029297
        k(  404) = (   0.5312500  -0.4062500   1.3437500), wk =   0.0058594
        k(  405) = (   0.4687500  -0.3437500   1.2812500), wk =   0.0058594
        k(  406) = (  -0.4062500  -1.3437500   0.4062500), wk =   0.0029297
        k(  407) = (  -0.4687500   0.4687500   0.4687500), wk =   0.0009766
        k(  408) = (   0.4687500  -0.4687500   1.4062500), wk =   0.0029297

                       cryst. coord.
        k(    1) = (   0.0312500   0.0312500   0.0312500), wk =   0.0009766
        k(    2) = (   0.0312500   0.0312500   0.0937500), wk =   0.0029297
        k(    3) = (   0.0312500   0.0312500   0.1562500), wk =   0.0029297
        k(    4) = (   0.0312500   0.0312500   0.2187500), wk =   0.0029297
        k(    5) = (   0.0312500   0.0312500   0.2812500), wk =   0.0029297
        k(    6) = (   0.0312500   0.0312500   0.3437500), wk =   0.0029297
        k(    7) = (   0.0312500   0.0312500   0.4062500), wk =   0.0029297
        k(    8) = (   0.0312500   0.0312500   0.4687500), wk =   0.0029297
        k(    9) = (   0.0312500   0.0312500  -0.4687500), wk =   0.0029297
        k(   10) = (   0.0312500   0.0312500  -0.4062500), wk =   0.0029297
        k(   11) = (   0.0312500   0.0312500  -0.3437500), wk =   0.0029297
        k(   12) = (   0.0312500   0.0312500  -0.2812500), wk =   0.0029297
        k(   13) = (   0.0312500   0.0312500  -0.2187500), wk =   0.0029297
        k(   14) = (   0.0312500   0.0312500  -0.1562500), wk =   0.0029297
        k(   15) = (   0.0312500   0.0312500  -0.0937500), wk =   0.0029297
        k(   16) = (   0.0312500   0.0312500  -0.0312500), wk =   0.0029297
        k(   17) = (   0.0312500   0.0937500   0.0937500), wk =   0.0029297
        k(   18) = (   0.0312500   0.0937500   0.1562500), wk =   0.0058594
        k(   19) = (   0.0312500   0.0937500   0.2187500), wk =   0.0058594
        k(   20) = (   0.0312500   0.0937500   0.2812500), wk =   0.0058594
        k(   21) = (   0.0312500   0.0937500   0.3437500), wk =   0.0058594
        k(   22) = (   0.0312500   0.0937500   0.4062500), wk =   0.0058594
        k(   23) = (   0.0312500   0.0937500   0.4687500), wk =   0.0058594
        k(   24) = (   0.0312500   0.0937500  -0.4687500), wk =   0.0058594
        k(   25) = (   0.0312500   0.0937500  -0.4062500), wk =   0.0058594
        k(   26) = (   0.0312500   0.0937500  -0.3437500), wk =   0.0058594
        k(   27) = (   0.0312500   0.0937500  -0.2812500), wk =   0.0058594
        k(   28) = (   0.0312500   0.0937500  -0.2187500), wk =   0.0058594
        k(   29) = (   0.0312500   0.0937500  -0.1562500), wk =   0.0058594
        k(   30) = (   0.0312500   0.0937500  -0.0937500), wk =   0.0058594
        k(   31) = (   0.0312500   0.0937500  -0.0312500), wk =   0.0058594
        k(   32) = (   0.0312500   0.1562500   0.1562500), wk =   0.0029297
        k(   33) = (   0.0312500   0.1562500   0.2187500), wk =   0.0058594
        k(   34) = (   0.0312500   0.1562500   0.2812500), wk =   0.0058594
        k(   35) = (   0.0312500   0.1562500   0.3437500), wk =   0.0058594
        k(   36) = (   0.0312500   0.1562500   0.4062500), wk =   0.0058594
        k(   37) = (   0.0312500   0.1562500   0.4687500), wk =   0.0058594
        k(   38) = (   0.0312500   0.1562500  -0.4687500), wk =   0.0058594
        k(   39) = (   0.0312500   0.1562500  -0.4062500), wk =   0.0058594
        k(   40) = (   0.0312500   0.1562500  -0.3437500), wk =   0.0058594
        k(   41) = (   0.0312500   0.1562500  -0.2812500), wk =   0.0058594
        k(   42) = (   0.0312500   0.1562500  -0.2187500), wk =   0.0058594
        k(   43) = (   0.0312500   0.1562500  -0.1562500), wk =   0.0058594
        k(   44) = (   0.0312500   0.1562500  -0.0937500), wk =   0.0058594
        k(   45) = (   0.0312500   0.1562500  -0.0312500), wk =   0.0058594
        k(   46) = (   0.0312500   0.2187500   0.2187500), wk =   0.0029297
        k(   47) = (   0.0312500   0.2187500   0.2812500), wk =   0.0058594
        k(   48) = (   0.0312500   0.2187500   0.3437500), wk =   0.0058594
        k(   49) = (   0.0312500   0.2187500   0.4062500), wk =   0.0058594
        k(   50) = (   0.0312500   0.2187500   0.4687500), wk =   0.0058594
        k(   51) = (   0.0312500   0.2187500  -0.4687500), wk =   0.0058594
        k(   52) = (   0.0312500   0.2187500  -0.4062500), wk =   0.0058594
        k(   53) = (   0.0312500   0.2187500  -0.3437500), wk =   0.0058594
        k(   54) = (   0.0312500   0.2187500  -0.2812500), wk =   0.0058594
        k(   55) = (   0.0312500   0.2187500  -0.2187500), wk =   0.0058594
        k(   56) = (   0.0312500   0.2187500  -0.1562500), wk =   0.0058594
        k(   57) = (   0.0312500   0.2187500  -0.0937500), wk =   0.0058594
        k(   58) = (   0.0312500   0.2187500  -0.0312500), wk =   0.0058594
        k(   59) = (   0.0312500   0.2812500   0.2812500), wk =   0.0029297
        k(   60) = (   0.0312500   0.2812500   0.3437500), wk =   0.0058594
        k(   61) = (   0.0312500   0.2812500   0.4062500), wk =   0.0058594
        k(   62) = (   0.0312500   0.2812500   0.4687500), wk =   0.0058594
        k(   63) = (   0.0312500   0.2812500  -0.4687500), wk =   0.0058594
        k(   64) = (   0.0312500   0.2812500  -0.4062500), wk =   0.0058594
        k(   65) = (   0.0312500   0.2812500  -0.3437500), wk =   0.0058594
        k(   66) = (   0.0312500   0.2812500  -0.2812500), wk =   0.0058594
        k(   67) = (   0.0312500   0.2812500  -0.2187500), wk =   0.0058594
        k(   68) = (   0.0312500   0.2812500  -0.1562500), wk =   0.0058594
        k(   69) = (   0.0312500   0.2812500  -0.0937500), wk =   0.0058594
        k(   70) = (   0.0312500   0.2812500  -0.0312500), wk =   0.0058594
        k(   71) = (   0.0312500   0.3437500   0.3437500), wk =   0.0029297
        k(   72) = (   0.0312500   0.3437500   0.4062500), wk =   0.0058594
        k(   73) = (   0.0312500   0.3437500   0.4687500), wk =   0.0058594
        k(   74) = (   0.0312500   0.3437500  -0.4687500), wk =   0.0058594
        k(   75) = (   0.0312500   0.3437500  -0.4062500), wk =   0.0058594
        k(   76) = (   0.0312500   0.3437500  -0.3437500), wk =   0.0058594
        k(   77) = (   0.0312500   0.3437500  -0.2812500), wk =   0.0058594
        k(   78) = (   0.0312500   0.3437500  -0.2187500), wk =   0.0058594
        k(   79) = (   0.0312500   0.3437500  -0.1562500), wk =   0.0058594
        k(   80) = (   0.0312500   0.3437500  -0.0937500), wk =   0.0058594
        k(   81) = (   0.0312500   0.3437500  -0.0312500), wk =   0.0058594
        k(   82) = (   0.0312500   0.4062500   0.4062500), wk =   0.0029297
        k(   83) = (   0.0312500   0.4062500   0.4687500), wk =   0.0058594
        k(   84) = (   0.0312500   0.4062500  -0.4687500), wk =   0.0058594
        k(   85) = (   0.0312500   0.4062500  -0.4062500), wk =   0.0058594
        k(   86) = (   0.0312500   0.4062500  -0.3437500), wk =   0.0058594
        k(   87) = (   0.0312500   0.4062500  -0.2812500), wk =   0.0058594
        k(   88) = (   0.0312500   0.4062500  -0.2187500), wk =   0.0058594
        k(   89) = (   0.0312500   0.4062500  -0.1562500), wk =   0.0058594
        k(   90) = (   0.0312500   0.4062500  -0.0937500), wk =   0.0058594
        k(   91) = (   0.0312500   0.4062500  -0.0312500), wk =   0.0058594
        k(   92) = (   0.0312500   0.4687500   0.4687500), wk =   0.0029297
        k(   93) = (   0.0312500   0.4687500  -0.4687500), wk =   0.0058594
        k(   94) = (   0.0312500   0.4687500  -0.4062500), wk =   0.0058594
        k(   95) = (   0.0312500   0.4687500  -0.3437500), wk =   0.0058594
        k(   96) = (   0.0312500   0.4687500  -0.2812500), wk =   0.0058594
        k(   97) = (   0.0312500   0.4687500  -0.2187500), wk =   0.0058594
        k(   98) = (   0.0312500   0.4687500  -0.1562500), wk =   0.0058594
        k(   99) = (   0.0312500   0.4687500  -0.0937500), wk =   0.0058594
        k(  100) = (   0.0312500   0.4687500  -0.0312500), wk =   0.0058594
        k(  101) = (   0.0312500  -0.4687500  -0.4687500), wk =   0.0029297
        k(  102) = (   0.0312500  -0.4687500  -0.4062500), wk =   0.0058594
        k(  103) = (   0.0312500  -0.4687500  -0.3437500), wk =   0.0058594
        k(  104) = (   0.0312500  -0.4687500  -0.2812500), wk =   0.0058594
        k(  105) = (   0.0312500  -0.4687500  -0.2187500), wk =   0.0058594
        k(  106) = (   0.0312500  -0.4687500  -0.1562500), wk =   0.0058594
        k(  107) = (   0.0312500  -0.4687500  -0.0937500), wk =   0.0058594
        k(  108) = (   0.0312500  -0.4062500  -0.4062500), wk =   0.0029297
        k(  109) = (   0.0312500  -0.4062500  -0.3437500), wk =   0.0058594
        k(  110) = (   0.0312500  -0.4062500  -0.2812500), wk =   0.0058594
        k(  111) = (   0.0312500  -0.4062500  -0.2187500), wk =   0.0058594
        k(  112) = (   0.0312500  -0.4062500  -0.1562500), wk =   0.0058594
        k(  113) = (   0.0312500  -0.4062500  -0.0937500), wk =   0.0058594
        k(  114) = (   0.0312500  -0.3437500  -0.3437500), wk =   0.0029297
        k(  115) = (   0.0312500  -0.3437500  -0.2812500), wk =   0.0058594
        k(  116) = (   0.0312500  -0.3437500  -0.2187500), wk =   0.0058594
        k(  117) = (   0.0312500  -0.3437500  -0.1562500), wk =   0.0058594
        k(  118) = (   0.0312500  -0.3437500  -0.0937500), wk =   0.0058594
        k(  119) = (   0.0312500  -0.2812500  -0.2812500), wk =   0.0029297
        k(  120) = (   0.0312500  -0.2812500  -0.2187500), wk =   0.0058594
        k(  121) = (   0.0312500  -0.2812500  -0.1562500), wk =   0.0058594
        k(  122) = (   0.0312500  -0.2812500  -0.0937500), wk =   0.0058594
        k(  123) = (   0.0312500  -0.2187500  -0.2187500), wk =   0.0029297
        k(  124) = (   0.0312500  -0.2187500  -0.1562500), wk =   0.0058594
        k(  125) = (   0.0312500  -0.2187500  -0.0937500), wk =   0.0058594
        k(  126) = (   0.0312500  -0.1562500  -0.1562500), wk =   0.0029297
        k(  127) = (   0.0312500  -0.1562500  -0.0937500), wk =   0.0058594
        k(  128) = (   0.0312500  -0.0937500  -0.0937500), wk =   0.0029297
        k(  129) = (   0.0937500   0.0937500   0.0937500), wk =   0.0009766
        k(  130) = (   0.0937500   0.0937500   0.1562500), wk =   0.0029297
        k(  131) = (   0.0937500   0.0937500   0.2187500), wk =   0.0029297
        k(  132) = (   0.0937500   0.0937500   0.2812500), wk =   0.0029297
        k(  133) = (   0.0937500   0.0937500   0.3437500), wk =   0.0029297
        k(  134) = (   0.0937500   0.0937500   0.4062500), wk =   0.0029297
        k(  135) = (   0.0937500   0.0937500   0.4687500), wk =   0.0029297
        k(  136) = (   0.0937500   0.0937500  -0.4687500), wk =   0.0029297
        k(  137) = (   0.0937500   0.0937500  -0.4062500), wk =   0.0029297
        k(  138) = (   0.0937500   0.0937500  -0.3437500), wk =   0.0029297
        k(  139) = (   0.0937500   0.0937500  -0.2812500), wk =   0.0029297
        k(  140) = (   0.0937500   0.0937500  -0.2187500), wk =   0.0029297
        k(  141) = (   0.0937500   0.0937500  -0.1562500), wk =   0.0029297
        k(  142) = (   0.0937500   0.0937500  -0.0937500), wk =   0.0029297
        k(  143) = (   0.0937500   0.1562500   0.1562500), wk =   0.0029297
        k(  144) = (   0.0937500   0.1562500   0.2187500), wk =   0.0058594
        k(  145) = (   0.0937500   0.1562500   0.2812500), wk =   0.0058594
        k(  146) = (   0.0937500   0.1562500   0.3437500), wk =   0.0058594
        k(  147) = (   0.0937500   0.1562500   0.4062500), wk =   0.0058594
        k(  148) = (   0.0937500   0.1562500   0.4687500), wk =   0.0058594
        k(  149) = (   0.0937500   0.1562500  -0.4687500), wk =   0.0058594
        k(  150) = (   0.0937500   0.1562500  -0.4062500), wk =   0.0058594
        k(  151) = (   0.0937500   0.1562500  -0.3437500), wk =   0.0058594
        k(  152) = (   0.0937500   0.1562500  -0.2812500), wk =   0.0058594
        k(  153) = (   0.0937500   0.1562500  -0.2187500), wk =   0.0058594
        k(  154) = (   0.0937500   0.1562500  -0.1562500), wk =   0.0058594
        k(  155) = (   0.0937500   0.1562500  -0.0937500), wk =   0.0058594
        k(  156) = (   0.0937500   0.2187500   0.2187500), wk =   0.0029297
        k(  157) = (   0.0937500   0.2187500   0.2812500), wk =   0.0058594
        k(  158) = (   0.0937500   0.2187500   0.3437500), wk =   0.0058594
        k(  159) = (   0.0937500   0.2187500   0.4062500), wk =   0.0058594
        k(  160) = (   0.0937500   0.2187500   0.4687500), wk =   0.0058594
        k(  161) = (   0.0937500   0.2187500  -0.4687500), wk =   0.0058594
        k(  162) = (   0.0937500   0.2187500  -0.4062500), wk =   0.0058594
        k(  163) = (   0.0937500   0.2187500  -0.3437500), wk =   0.0058594
        k(  164) = (   0.0937500   0.2187500  -0.2812500), wk =   0.0058594
        k(  165) = (   0.0937500   0.2187500  -0.2187500), wk =   0.0058594
        k(  166) = (   0.0937500   0.2187500  -0.1562500), wk =   0.0058594
        k(  167) = (   0.0937500   0.2187500  -0.0937500), wk =   0.0058594
        k(  168) = (   0.0937500   0.2812500   0.2812500), wk =   0.0029297
        k(  169) = (   0.0937500   0.2812500   0.3437500), wk =   0.0058594
        k(  170) = (   0.0937500   0.2812500   0.4062500), wk =   0.0058594
        k(  171) = (   0.0937500   0.2812500   0.4687500), wk =   0.0058594
        k(  172) = (   0.0937500   0.2812500  -0.4687500), wk =   0.0058594
        k(  173) = (   0.0937500   0.2812500  -0.4062500), wk =   0.0058594
        k(  174) = (   0.0937500   0.2812500  -0.3437500), wk =   0.0058594
        k(  175) = (   0.0937500   0.2812500  -0.2812500), wk =   0.0058594
        k(  176) = (   0.0937500   0.2812500  -0.2187500), wk =   0.0058594
        k(  177) = (   0.0937500   0.2812500  -0.1562500), wk =   0.0058594
        k(  178) = (   0.0937500   0.2812500  -0.0937500), wk =   0.0058594
        k(  179) = (   0.0937500   0.3437500   0.3437500), wk =   0.0029297
        k(  180) = (   0.0937500   0.3437500   0.4062500), wk =   0.0058594
        k(  181) = (   0.0937500   0.3437500   0.4687500), wk =   0.0058594
        k(  182) = (   0.0937500   0.3437500  -0.4687500), wk =   0.0058594
        k(  183) = (   0.0937500   0.3437500  -0.4062500), wk =   0.0058594
        k(  184) = (   0.0937500   0.3437500  -0.3437500), wk =   0.0058594
        k(  185) = (   0.0937500   0.3437500  -0.2812500), wk =   0.0058594
        k(  186) = (   0.0937500   0.3437500  -0.2187500), wk =   0.0058594
        k(  187) = (   0.0937500   0.3437500  -0.1562500), wk =   0.0058594
        k(  188) = (   0.0937500   0.3437500  -0.0937500), wk =   0.0058594
        k(  189) = (   0.0937500   0.4062500   0.4062500), wk =   0.0029297
        k(  190) = (   0.0937500   0.4062500   0.4687500), wk =   0.0058594
        k(  191) = (   0.0937500   0.4062500  -0.4687500), wk =   0.0058594
        k(  192) = (   0.0937500   0.4062500  -0.4062500), wk =   0.0058594
        k(  193) = (   0.0937500   0.4062500  -0.3437500), wk =   0.0058594
        k(  194) = (   0.0937500   0.4062500  -0.2812500), wk =   0.0058594
        k(  195) = (   0.0937500   0.4062500  -0.2187500), wk =   0.0058594
        k(  196) = (   0.0937500   0.4062500  -0.1562500), wk =   0.0058594
        k(  197) = (   0.0937500   0.4062500  -0.0937500), wk =   0.0058594
        k(  198) = (   0.0937500   0.4687500   0.4687500), wk =   0.0029297
        k(  199) = (   0.0937500   0.4687500  -0.4687500), wk =   0.0058594
        k(  200) = (   0.0937500   0.4687500  -0.4062500), wk =   0.0058594
        k(  201) = (   0.0937500   0.4687500  -0.3437500), wk =   0.0058594
        k(  202) = (   0.0937500   0.4687500  -0.2812500), wk =   0.0058594
        k(  203) = (   0.0937500   0.4687500  -0.2187500), wk =   0.0058594
        k(  204) = (   0.0937500   0.4687500  -0.1562500), wk =   0.0058594
        k(  205) = (   0.0937500   0.4687500  -0.0937500), wk =   0.0058594
        k(  206) = (   0.0937500  -0.4687500  -0.4687500), wk =   0.0029297
        k(  207) = (   0.0937500  -0.4687500  -0.4062500), wk =   0.0058594
        k(  208) = (   0.0937500  -0.4687500  -0.3437500), wk =   0.0058594
        k(  209) = (   0.0937500  -0.4687500  -0.2812500), wk =   0.0058594
        k(  210) = (   0.0937500  -0.4687500  -0.2187500), wk =   0.0058594
        k(  211) = (   0.0937500  -0.4687500  -0.1562500), wk =   0.0058594
        k(  212) = (   0.0937500  -0.4062500  -0.4062500), wk =   0.0029297
        k(  213) = (   0.0937500  -0.4062500  -0.3437500), wk =   0.0058594
        k(  214) = (   0.0937500  -0.4062500  -0.2812500), wk =   0.0058594
        k(  215) = (   0.0937500  -0.4062500  -0.2187500), wk =   0.0058594
        k(  216) = (   0.0937500  -0.4062500  -0.1562500), wk =   0.0058594
        k(  217) = (   0.0937500  -0.3437500  -0.3437500), wk =   0.0029297
        k(  218) = (   0.0937500  -0.3437500  -0.2812500), wk =   0.0058594
        k(  219) = (   0.0937500  -0.3437500  -0.2187500), wk =   0.0058594
        k(  220) = (   0.0937500  -0.3437500  -0.1562500), wk =   0.0058594
        k(  221) = (   0.0937500  -0.2812500  -0.2812500), wk =   0.0029297
        k(  222) = (   0.0937500  -0.2812500  -0.2187500), wk =   0.0058594
        k(  223) = (   0.0937500  -0.2812500  -0.1562500), wk =   0.0058594
        k(  224) = (   0.0937500  -0.2187500  -0.2187500), wk =   0.0029297
        k(  225) = (   0.0937500  -0.2187500  -0.1562500), wk =   0.0058594
        k(  226) = (   0.0937500  -0.1562500  -0.1562500), wk =   0.0029297
        k(  227) = (   0.1562500   0.1562500   0.1562500), wk =   0.0009766
        k(  228) = (   0.1562500   0.1562500   0.2187500), wk =   0.0029297
        k(  229) = (   0.1562500   0.1562500   0.2812500), wk =   0.0029297
        k(  230) = (   0.1562500   0.1562500   0.3437500), wk =   0.0029297
        k(  231) = (   0.1562500   0.1562500   0.4062500), wk =   0.0029297
        k(  232) = (   0.1562500   0.1562500   0.4687500), wk =   0.0029297
        k(  233) = (   0.1562500   0.1562500  -0.4687500), wk =   0.0029297
        k(  234) = (   0.1562500   0.1562500  -0.4062500), wk =   0.0029297
        k(  235) = (   0.1562500   0.1562500  -0.3437500), wk =   0.0029297
        k(  236) = (   0.1562500   0.1562500  -0.2812500), wk =   0.0029297
        k(  237) = (   0.1562500   0.1562500  -0.2187500), wk =   0.0029297
        k(  238) = (   0.1562500   0.1562500  -0.1562500), wk =   0.0029297
        k(  239) = (   0.1562500   0.2187500   0.2187500), wk =   0.0029297
        k(  240) = (   0.1562500   0.2187500   0.2812500), wk =   0.0058594
        k(  241) = (   0.1562500   0.2187500   0.3437500), wk =   0.0058594
        k(  242) = (   0.1562500   0.2187500   0.4062500), wk =   0.0058594
        k(  243) = (   0.1562500   0.2187500   0.4687500), wk =   0.0058594
        k(  244) = (   0.1562500   0.2187500  -0.4687500), wk =   0.0058594
        k(  245) = (   0.1562500   0.2187500  -0.4062500), wk =   0.0058594
        k(  246) = (   0.1562500   0.2187500  -0.3437500), wk =   0.0058594
        k(  247) = (   0.1562500   0.2187500  -0.2812500), wk =   0.0058594
        k(  248) = (   0.1562500   0.2187500  -0.2187500), wk =   0.0058594
        k(  249) = (   0.1562500   0.2187500  -0.1562500), wk =   0.0058594
        k(  250) = (   0.1562500   0.2812500   0.2812500), wk =   0.0029297
        k(  251) = (   0.1562500   0.2812500   0.3437500), wk =   0.0058594
        k(  252) = (   0.1562500   0.2812500   0.4062500), wk =   0.0058594
        k(  253) = (   0.1562500   0.2812500   0.4687500), wk =   0.0058594
        k(  254) = (   0.1562500   0.2812500  -0.4687500), wk =   0.0058594
        k(  255) = (   0.1562500   0.2812500  -0.4062500), wk =   0.0058594
        k(  256) = (   0.1562500   0.2812500  -0.3437500), wk =   0.0058594
        k(  257) = (   0.1562500   0.2812500  -0.2812500), wk =   0.0058594
        k(  258) = (   0.1562500   0.2812500  -0.2187500), wk =   0.0058594
        k(  259) = (   0.1562500   0.2812500  -0.1562500), wk =   0.0058594
        k(  260) = (   0.1562500   0.3437500   0.3437500), wk =   0.0029297
        k(  261) = (   0.1562500   0.3437500   0.4062500), wk =   0.0058594
        k(  262) = (   0.1562500   0.3437500   0.4687500), wk =   0.0058594
        k(  263) = (   0.1562500   0.3437500  -0.4687500), wk =   0.0058594
        k(  264) = (   0.1562500   0.3437500  -0.4062500), wk =   0.0058594
        k(  265) = (   0.1562500   0.3437500  -0.3437500), wk =   0.0058594
        k(  266) = (   0.1562500   0.3437500  -0.2812500), wk =   0.0058594
        k(  267) = (   0.1562500   0.3437500  -0.2187500), wk =   0.0058594
        k(  268) = (   0.1562500   0.3437500  -0.1562500), wk =   0.0058594
        k(  269) = (   0.1562500   0.4062500   0.4062500), wk =   0.0029297
        k(  270) = (   0.1562500   0.4062500   0.4687500), wk =   0.0058594
        k(  271) = (   0.1562500   0.4062500  -0.4687500), wk =   0.0058594
        k(  272) = (   0.1562500   0.4062500  -0.4062500), wk =   0.0058594
        k(  273) = (   0.1562500   0.4062500  -0.3437500), wk =   0.0058594
        k(  274) = (   0.1562500   0.4062500  -0.2812500), wk =   0.0058594
        k(  275) = (   0.1562500   0.4062500  -0.2187500), wk =   0.0058594
        k(  276) = (   0.1562500   0.4062500  -0.1562500), wk =   0.0058594
        k(  277) = (   0.1562500   0.4687500   0.4687500), wk =   0.0029297
        k(  278) = (   0.1562500   0.4687500  -0.4687500), wk =   0.0058594
        k(  279) = (   0.1562500   0.4687500  -0.4062500), wk =   0.0058594
        k(  280) = (   0.1562500   0.4687500  -0.3437500), wk =   0.0058594
        k(  281) = (   0.1562500   0.4687500  -0.2812500), wk =   0.0058594
        k(  282) = (   0.1562500   0.4687500  -0.2187500), wk =   0.0058594
        k(  283) = (   0.1562500   0.4687500  -0.1562500), wk =   0.0058594
        k(  284) = (   0.1562500  -0.4687500  -0.4687500), wk =   0.0029297
        k(  285) = (   0.1562500  -0.4687500  -0.4062500), wk =   0.0058594
        k(  286) = (   0.1562500  -0.4687500  -0.3437500), wk =   0.0058594
        k(  287) = (   0.1562500  -0.4687500  -0.2812500), wk =   0.0058594
        k(  288) = (   0.1562500  -0.4687500  -0.2187500), wk =   0.0058594
        k(  289) = (   0.1562500  -0.4062500  -0.4062500), wk =   0.0029297
        k(  290) = (   0.1562500  -0.4062500  -0.3437500), wk =   0.0058594
        k(  291) = (   0.1562500  -0.4062500  -0.2812500), wk =   0.0058594
        k(  292) = (   0.1562500  -0.4062500  -0.2187500), wk =   0.0058594
        k(  293) = (   0.1562500  -0.3437500  -0.3437500), wk =   0.0029297
        k(  294) = (   0.1562500  -0.3437500  -0.2812500), wk =   0.0058594
        k(  295) = (   0.1562500  -0.3437500  -0.2187500), wk =   0.0058594
        k(  296) = (   0.1562500  -0.2812500  -0.2812500), wk =   0.0029297
        k(  297) = (   0.1562500  -0.2812500  -0.2187500), wk =   0.0058594
        k(  298) = (   0.1562500  -0.2187500  -0.2187500), wk =   0.0029297
        k(  299) = (   0.2187500   0.2187500   0.2187500), wk =   0.0009766
        k(  300) = (   0.2187500   0.2187500   0.2812500), wk =   0.0029297
        k(  301) = (   0.2187500   0.2187500   0.3437500), wk =   0.0029297
        k(  302) = (   0.2187500   0.2187500   0.4062500), wk =   0.0029297
        k(  303) = (   0.2187500   0.2187500   0.4687500), wk =   0.0029297
        k(  304) = (   0.2187500   0.2187500  -0.4687500), wk =   0.0029297
        k(  305) = (   0.2187500   0.2187500  -0.4062500), wk =   0.0029297
        k(  306) = (   0.2187500   0.2187500  -0.3437500), wk =   0.0029297
        k(  307) = (   0.2187500   0.2187500  -0.2812500), wk =   0.0029297
        k(  308) = (   0.2187500   0.2187500  -0.2187500), wk =   0.0029297
        k(  309) = (   0.2187500   0.2812500   0.2812500), wk =   0.0029297
        k(  310) = (   0.2187500   0.2812500   0.3437500), wk =   0.0058594
        k(  311) = (   0.2187500   0.2812500   0.4062500), wk =   0.0058594
        k(  312) = (   0.2187500   0.2812500   0.4687500), wk =   0.0058594
        k(  313) = (   0.2187500   0.2812500  -0.4687500), wk =   0.0058594
        k(  314) = (   0.2187500   0.2812500  -0.4062500), wk =   0.0058594
        k(  315) = (   0.2187500   0.2812500  -0.3437500), wk =   0.0058594
        k(  316) = (   0.2187500   0.2812500  -0.2812500), wk =   0.0058594
        k(  317) = (   0.2187500   0.2812500  -0.2187500), wk =   0.0058594
        k(  318) = (   0.2187500   0.3437500   0.3437500), wk =   0.0029297
        k(  319) = (   0.2187500   0.3437500   0.4062500), wk =   0.0058594
        k(  320) = (   0.2187500   0.3437500   0.4687500), wk =   0.0058594
        k(  321) = (   0.2187500   0.3437500  -0.4687500), wk =   0.0058594
[...]

     1.4007   8.2624  13.0298  13.6041  17.8213  22.7670

     occupation numbers 
     1.0000   0.1322   0.0000   0.0000   0.0000   0.0000

          k = 0.6562-0.2812 1.0938 (    81 PWs)   bands (ev):

     2.3480   8.0829  11.4040  12.0850  19.5307  22.6240

     occupation numbers 
     1.0000   0.1987   0.0000   0.0000   0.0000   0.0000

          k = 0.5938-0.2188 1.0312 (    83 PWs)   bands (ev):

     3.4829   7.9489   9.6848  11.0914  21.3366  22.5265

     occupation numbers 
     1.0000   0.2609   0.0008   0.0000   0.0000   0.0000

          k = 0.5312-0.1562 0.9688 (    80 PWs)   bands (ev):

     4.7991   7.1852   8.9038  10.3487  22.1915  22.7079

     occupation numbers 
     1.0057   0.7505   0.0203   0.0000   0.0000   0.0000

          k = 0.4688-0.0938 0.9062 (    79 PWs)   bands (ev):

     5.7298   6.2849   9.0822   9.8996  21.7239  23.2273

     occupation numbers 
     1.0585   1.0800   0.0107   0.0003   0.0000   0.0000

          k = 0.4062-0.0312 0.8438 (    82 PWs)   bands (ev):

     4.3357   7.7557   9.3372  10.0476  21.1612  22.6310

     occupation numbers 
     1.0010   0.3686   0.0039   0.0001   0.0000   0.0000

          k =-0.2188 0.7188 0.2188 (    78 PWs)   bands (ev):

     2.0820   7.8856  11.7020  14.4993  16.1658  22.4853

     occupation numbers 
     1.0000   0.2940   0.0000   0.0000   0.0000   0.0000

          k = 0.7188-0.2188 1.1562 (    79 PWs)   bands (ev):

     2.9521   7.6757  10.4881  13.0098  17.2740  22.3326

     occupation numbers 
     1.0000   0.4185   0.0000   0.0000   0.0000   0.0000

          k = 0.6562-0.1562 1.0938 (    81 PWs)   bands (ev):

     4.0058   7.6221   9.4502  11.1341  19.1140  22.3570

     occupation numbers 
     1.0002   0.4533   0.0024   0.0000   0.0000   0.0000

          k = 0.5938-0.0938 1.0312 (    79 PWs)   bands (ev):

     5.2215   7.6244   8.5629   9.5882  21.0438  22.6346

     occupation numbers 
     1.0205   0.4518   0.0597   0.0013   0.0000   0.0000

          k = 0.5312-0.0312 0.9688 (    84 PWs)   bands (ev):

     6.4721   6.9839   8.0452   8.9791  22.4119  23.4759

     occupation numbers 
     1.0590   0.8723   0.2152   0.0156   0.0000   0.0000

          k = 0.4688 0.0312 0.9062 (    81 PWs)   bands (ev):

     5.6734   7.0553   8.6237   9.3888  22.4439  23.0068

     occupation numbers 
     1.0536   0.8315   0.0499   0.0032   0.0000   0.0000

          k =-0.2188-1.1562 0.2188 (    77 PWs)   bands (ev):

     3.7445   7.4205   9.2368  14.0888  15.7188  22.1214

     occupation numbers 
     1.0001   0.5905   0.0059   0.0000   0.0000   0.0000

          k =-0.2812-1.0938 0.1562 (    78 PWs)   bands (ev):

     4.7005   7.3165   8.1971  12.6975  16.9692  22.0780

     occupation numbers 
     1.0041   0.6623   0.1542   0.0000   0.0000   0.0000

          k =-0.3438-1.0312 0.0938 (    77 PWs)   bands (ev):

     5.7126   7.2219   7.6301  10.9282  18.9342  22.2320

     occupation numbers 
     1.0570   0.7263   0.4480   0.0000   0.0000   0.0000

          k =-0.4062-0.9688 0.0312 (    81 PWs)   bands (ev):

     6.0292   7.4965   7.7541   9.4615  20.9818  22.6100

     occupation numbers 
     1.0800   0.5380   0.3696   0.0023   0.0000   0.0000

          k =-0.2188-1.0312 0.2188 (    77 PWs)   bands (ev):

     5.4578   6.9662   7.4294  13.9134  15.5257  21.9650

     occupation numbers 
     1.0358   0.8820   0.5843   0.0000   0.0000   0.0000

          k =-0.2812-0.9688 0.1562 (    78 PWs)   bands (ev):

     5.5202   7.0304   7.4822  12.6337  16.9067  22.0277

     occupation numbers 
     1.0407   0.8461   0.5478   0.0000   0.0000   0.0000

          k =-0.3438-0.9062 0.0938 (    78 PWs)   bands (ev):

     4.8961   7.4733   8.3668  10.9975  18.9972  22.2772

     occupation numbers 
     1.0079   0.5539   0.1019   0.0000   0.0000   0.0000

          k =-0.2188-0.9062 0.2188 (    78 PWs)   bands (ev):

     4.6359   7.2602   8.1376  13.9709  15.5900  22.0118

     occupation numbers 
     1.0032   0.7006   0.1765   0.0000   0.0000   0.0000

          k =-0.2812-0.8438 0.1562 (    79 PWs)   bands (ev):

     3.8099   7.4731   9.2913  12.8214  17.0913  22.1771

     occupation numbers 
     1.0001   0.5541   0.0048   0.0000   0.0000   0.0000

          k =-0.2188-0.7812 0.2188 (    78 PWs)   bands (ev):

     2.8862   7.6227  10.4351  14.2645  15.9091  22.2778

     occupation numbers 
     1.0000   0.4529   0.0000   0.0000   0.0000   0.0000

          k =-0.2812 0.2812 0.2812 (    74 PWs)   bands (ev):

    -1.2118   9.9695  18.2903  18.2903  21.6780  21.6784

     occupation numbers 
     1.0000   0.0002   0.0000   0.0000   0.0000   0.0000

          k =-0.3438 0.3438 0.2188 (    74 PWs)   bands (ev):

    -0.7937   9.3258  16.3926  19.4916  20.2712  21.6700

     occupation numbers 
     1.0000   0.0041   0.0000   0.0000   0.0000   0.0000

          k =-0.4062 0.4062 0.1562 (    79 PWs)   bands (ev):

    -0.1756   8.8510  14.1414  18.6918  20.6665  21.2148

     occupation numbers 
     1.0000   0.0243   0.0000   0.0000   0.0000   0.0000

          k =-0.4688 0.4688 0.0938 (    77 PWs)   bands (ev):

     0.6527   8.5413  11.9732  17.5209  19.5410  22.9137

     occupation numbers 
     1.0000   0.0635   0.0000   0.0000   0.0000   0.0000

          k = 0.4688-0.4688 1.0312 (    79 PWs)   bands (ev):

     1.6743   8.2721  10.0819  16.5134  18.4919  24.8072

     occupation numbers 
     1.0000   0.1291   0.0001   0.0000   0.0000   0.0000

          k = 0.4062-0.4062 0.9688 (    83 PWs)   bands (ev):

     2.8896   7.3760   9.1607  15.6834  17.5733  25.9068

     occupation numbers 
     1.0000   0.6213   0.0080   0.0000   0.0000   0.0000

          k = 0.3438-0.3438 0.9062 (    82 PWs)   bands (ev):

     4.2882   5.8195   9.2803  15.0318  16.8357  26.2106

     occupation numbers 
     1.0008   1.0660   0.0050   0.0000   0.0000   0.0000

          k = 0.2812-0.2812 0.8438 (    78 PWs)   bands (ev):

     4.2710   5.8836   9.7466  14.5597  16.2914  24.3401

     occupation numbers 
     1.0007   1.0710   0.0006   0.0000   0.0000   0.0000

          k =-0.2812 0.4062 0.2812 (    74 PWs)   bands (ev):

    -0.4466   8.6232  17.0468  18.4972  19.1610  22.3524

     occupation numbers 
     1.0000   0.0500   0.0000   0.0000   0.0000   0.0000

          k =-0.3438 0.4688 0.2188 (    77 PWs)   bands (ev):

     0.1035   8.0967  15.2946  17.7470  19.4364  21.9562

     occupation numbers 
     1.0000   0.1929   0.0000   0.0000   0.0000   0.0000

          k =-0.4062 0.5312 0.1562 (    78 PWs)   bands (ev):

     0.8573   7.7535  13.1005  16.4887  20.6738  21.2521

     occupation numbers 
     1.0000   0.3699   0.0000   0.0000   0.0000   0.0000

          k = 0.5312-0.4062 1.0938 (    81 PWs)   bands (ev):

     1.8093   7.5703  11.0158  15.3911  19.8015  22.8631

     occupation numbers 
     1.0000   0.4877   0.0000   0.0000   0.0000   0.0000

          k = 0.4688-0.3438 1.0312 (    82 PWs)   bands (ev):

     2.9565   7.4400   9.2246  14.4714  18.8870  24.7722

     occupation numbers 
     1.0000   0.5769   0.0062   0.0000   0.0000   0.0000

          k = 0.4062-0.2812 0.9688 (    82 PWs)   bands (ev):

     4.2884   6.6742   8.4333  13.7296  18.1233  25.8714

     occupation numbers 
     1.0008   1.0090   0.0856   0.0000   0.0000   0.0000

          k = 0.3438-0.2188 0.9062 (    80 PWs)   bands (ev):

     5.2096   5.8191   8.6904  13.1782  17.5315  24.2701

     occupation numbers 
     1.0199   1.0660   0.0408   0.0000   0.0000   0.0000

          k =-0.2812 0.5312 0.2812 (    78 PWs)   bands (ev):

     0.5842   7.5161  16.0363  16.2970  17.7733  23.2665

     occupation numbers 
     1.0000   0.5246   0.0000   0.0000   0.0000   0.0000

          k =-0.3438 0.5938 0.2188 (    80 PWs)   bands (ev):

     1.2672   7.1182  14.3563  14.9898  18.6943  22.8867

     occupation numbers 
     1.0000   0.7932   0.0000   0.0000   0.0000   0.0000

          k = 0.5938-0.3438 1.1562 (    80 PWs)   bands (ev):

     2.1495   6.9062  12.2637  13.8110  20.3435  21.9764

     occupation numbers 
     1.0000   0.9132   0.0000   0.0000   0.0000   0.0000

          k = 0.5312-0.2812 1.0938 (    81 PWs)   bands (ev):

     3.2246   6.8579  10.2959  12.8045  20.9170  22.3789

     occupation numbers 
     1.0000   0.9364   0.0000   0.0000   0.0000   0.0000

          k = 0.4688-0.2188 1.0312 (    81 PWs)   bands (ev):

     4.4828   6.8665   8.6223  11.9908  20.1669  24.3038

     occupation numbers 
     1.0018   0.9324   0.0501   0.0000   0.0000   0.0000

          k = 0.4062-0.1562 0.9688 (    79 PWs)   bands (ev):

     5.8947   6.2392   7.9683  11.3779  19.5265  24.3000

     occupation numbers 
     1.0718   1.0821   0.2513   0.0000   0.0000   0.0000

          k =-0.2812 0.6562 0.2812 (    79 PWs)   bands (ev):

     1.8797   6.6667  13.5277  15.2668  17.0321  24.7321

     occupation numbers 
     1.0000   1.0115   0.0000   0.0000   0.0000   0.0000

          k = 0.6562-0.2812 1.2188 (    80 PWs)   bands (ev):

     2.6876   6.3996  12.2546  13.7456  18.0677  23.9821

     occupation numbers 
     1.0000   1.0698   0.0000   0.0000   0.0000   0.0000

          k = 0.5938-0.2188 1.1562 (    79 PWs)   bands (ev):

     3.6881   6.3199  11.1058  11.8384  19.8709  23.2201

     occupation numbers 
     1.0000   1.0777   0.0000   0.0000   0.0000   0.0000

          k = 0.5312-0.1562 1.0938 (    80 PWs)   bands (ev):

     4.8631   6.4057   9.7312  10.4831  21.7577  22.5623

     occupation numbers 
     1.0071   1.0690   0.0007   0.0000   0.0000   0.0000

          k = 0.4688-0.0938 1.0312 (    80 PWs)   bands (ev):

     6.1818   6.5540   8.2456   9.7640  21.6848  23.9168

     occupation numbers 
     1.0833   1.0424   0.1376   0.0006   0.0000   0.0000

          k =-0.2812-1.2188 0.2812 (    79 PWs)   bands (ev):

     3.4205   6.0793  10.9455  14.7360  16.4770  24.4577

     occupation numbers 
     1.0000   1.0819   0.0000   0.0000   0.0000   0.0000

          k =-0.3438-1.1562 0.2188 (    80 PWs)   bands (ev):

     4.3360   5.9427   9.8024  13.3051  17.6505  24.3159

     occupation numbers 
     1.0010   1.0752   0.0005   0.0000   0.0000   0.0000

          k =-0.4062-1.0938 0.1562 (    79 PWs)   bands (ev):

     5.4053   6.0022   8.8716  11.4476  19.5874  24.1960

     occupation numbers 
     1.0320   1.0787   0.0227   0.0000   0.0000   0.0000

          k =-0.2812-1.0938 0.2812 (    80 PWs)   bands (ev):

     5.1446   5.7569   8.6297  14.4415  16.1625  24.2472

     occupation numbers 
     1.0167   1.0608   0.0490   0.0000   0.0000   0.0000

          k =-0.3438-1.0312 0.2188 (    80 PWs)   bands (ev):

     5.7113   6.0473   7.7781  13.1148  17.4702  24.2402

     occupation numbers 
     1.0569   1.0808   0.3551   0.0000   0.0000   0.0000

          k =-0.2812-0.9688 0.2812 (    79 PWs)   bands (ev):

     5.6498   5.9850   7.7155  14.3838  16.0998  24.2086

     occupation numbers 
     1.0515   1.0777   0.3933   0.0000   0.0000   0.0000

          k =-0.3438 0.3438 0.3438 (    74 PWs)   bands (ev):

    -0.1698   7.8525  18.2381  18.2381  20.6894  20.6895

     occupation numbers 
     1.0000   0.3122   0.0000   0.0000   0.0000   0.0000

          k =-0.4062 0.4062 0.2812 (    74 PWs)   bands (ev):

     0.3132   7.2664  16.3990  19.0439  19.7809  20.7184

     occupation numbers 
     1.0000   0.6964   0.0000   0.0000   0.0000   0.0000

          k =-0.4688 0.4688 0.2188 (    78 PWs)   bands (ev):

     0.9953   6.8623  14.1933  17.8180  19.7421  21.2626

     occupation numbers 
     1.0000   0.9344   0.0000   0.0000   0.0000   0.0000

          k = 0.4688-0.4688 1.1562 (    80 PWs)   bands (ev):

     1.8807   6.6461  12.0436  16.6919  18.6428  23.0320

     occupation numbers 
     1.0000   1.0179   0.0000   0.0000   0.0000   0.0000

          k = 0.4062-0.4062 1.0938 (    80 PWs)   bands (ev):

     2.9592   6.5988  10.0619  15.7426  17.6368  24.9941

     occupation numbers 
     1.0000   1.0313   0.0001   0.0000   0.0000   0.0000

          k = 0.3438-0.3438 1.0312 (    81 PWs)   bands (ev):

     4.2242   6.6120   8.3707  14.9728  16.7811  26.4097

     occupation numbers 
     1.0006   1.0277   0.1009   0.0000   0.0000   0.0000

          k =-0.3438 0.4688 0.3438 (    74 PWs)   bands (ev):

     0.7254   6.6164  17.1120  18.2150  18.6221  21.4731

     occupation numbers 
     1.0000   1.0265   0.0000   0.0000   0.0000   0.0000

          k =-0.4062 0.5312 0.2812 (    78 PWs)   bands (ev):

     1.3376   6.1508  15.4155  16.8983  19.5635  21.1276

     occupation numbers 
     1.0000   1.0833   0.0000   0.0000   0.0000   0.0000

          k = 0.5312-0.4062 1.2188 (    81 PWs)   bands (ev):

     2.1505   5.8773  13.2633  15.6933  20.0177  21.3121

     occupation numbers 
     1.0000   1.0706   0.0000   0.0000   0.0000   0.0000

          k = 0.4688-0.3438 1.1562 (    80 PWs)   bands (ev):

     3.1606   5.7959  11.2158  14.6566  19.0560  23.1424

     occupation numbers 
     1.0000   1.0641   0.0000   0.0000   0.0000   0.0000

          k = 0.4062-0.2812 1.0938 (    84 PWs)   bands (ev):

     4.3507   5.8835   9.3378  13.7906  18.1772  25.0992

     occupation numbers 
     1.0010   1.0710   0.0039   0.0000   0.0000   0.0000

          k =-0.3438 0.5938 0.3438 (    79 PWs)   bands (ev):

     1.8804   5.6256  15.4916  16.2181  17.9869  22.5035

     occupation numbers 
     1.0000   1.0495   0.0000   0.0000   0.0000   0.0000

          k = 0.5938-0.3438 1.2812 (    80 PWs)   bands (ev):

     2.6234   5.2924  14.1599  14.6820  18.9715  22.2005

     occupation numbers 
     1.0000   1.0245   0.0000   0.0000   0.0000   0.0000

          k = 0.5312-0.2812 1.2188 (    80 PWs)   bands (ev):

     3.5579   5.1571  12.5106  13.1728  20.6000  21.4170

     occupation numbers 
     1.0000   1.0173   0.0000   0.0000   0.0000   0.0000

          k = 0.4688-0.2188 1.1562 (    81 PWs)   bands (ev):

     4.6679   5.2184  10.6125  12.1980  20.3264  22.7656

     occupation numbers 
     1.0036   1.0203   0.0000   0.0000   0.0000   0.0000

          k =-0.3438-1.2812 0.3438 (    80 PWs)   bands (ev):

     3.2923   4.8992  12.8367  15.5637  17.3861  23.7984

     occupation numbers 
     1.0000   1.0080   0.0000   0.0000   0.0000   0.0000

          k =-0.4062-1.2188 0.2812 (    80 PWs)   bands (ev):

     4.1425   4.7089  11.6367  14.1039  18.4768  23.5583

     occupation numbers 
     1.0004   1.0042   0.0000   0.0000   0.0000   0.0000

          k =-0.3438-1.1562 0.3438 (    81 PWs)   bands (ev):

     4.4129   4.9542  10.3881  15.1496  16.9638  25.3395

     occupation numbers 
     1.0013   1.0095   0.0000   0.0000   0.0000   0.0000

          k =-0.4062 0.4062 0.4062 (    74 PWs)   bands (ev):

     1.0677   5.8977  18.3561  18.3561  19.8653  19.8653

     occupation numbers 
     1.0000   1.0721   0.0000   0.0000   0.0000   0.0000

          k =-0.4688 0.4688 0.3438 (    76 PWs)   bands (ev):

     1.6133   5.3680  16.5838  18.3483  19.8836  19.9243

     occupation numbers 
     1.0000   1.0294   0.0000   0.0000   0.0000   0.0000

          k = 0.4688-0.4688 1.2812 (    79 PWs)   bands (ev):

     2.3560   5.0300  14.4354  17.1095  18.9759  21.4951

     occupation numbers 
     1.0000   1.0120   0.0000   0.0000   0.0000   0.0000

          k = 0.4062-0.4062 1.2188 (    79 PWs)   bands (ev):

     3.2952   4.8928  12.3407  16.0392  17.9265  23.3272

     occupation numbers 
     1.0000   1.0078   0.0000   0.0000   0.0000   0.0000

          k =-0.4062 0.5312 0.4062 (    76 PWs)   bands (ev):

     2.0900   4.7729  17.3515  17.5008  18.8640  20.7609

     occupation numbers 
     1.0000   1.0052   0.0000   0.0000   0.0000   0.0000

          k = 0.5312-0.4062 1.3438 (    79 PWs)   bands (ev):

     2.7607   4.3709  15.7139  16.2327  19.8314  20.5041

     occupation numbers 
     1.0000   1.0011   0.0000   0.0000   0.0000   0.0000

          k = 0.4688-0.3438 1.2812 (    80 PWs)   bands (ev):

     3.6223   4.1744  13.6280  15.0844  19.4163  21.6644

     occupation numbers 
     1.0000   1.0005   0.0000   0.0000   0.0000   0.0000

          k =-0.4062-1.3438 0.4062 (    80 PWs)   bands (ev):

     3.3581   3.9091  14.8691  16.5749  18.3890  21.9101

     occupation numbers 
     1.0000   1.0001   0.0000   0.0000   0.0000   0.0000

          k =-0.4688 0.4688 0.4688 (    76 PWs)   bands (ev):

     2.4954   4.1093  18.6138  18.6138  19.2505  19.2506

     occupation numbers 
     1.0000   1.0004   0.0000   0.0000   0.0000   0.0000

          k = 0.4688-0.4688 1.4062 (    76 PWs)   bands (ev):

     3.0970   3.6459  16.9530  17.7667  19.3034  20.2276

     occupation numbers 
     1.0000   1.0000   0.0000   0.0000   0.0000   0.0000

     the Fermi energy is     7.7038 ev

!    total energy              =      -4.18230148 Ry
     estimated scf accuracy    <       0.00000036 Ry
     smearing contrib. (-TS)   =      -0.00075787 Ry
     internal energy E=F+TS    =      -4.18154361 Ry

     The total energy is F=E-TS. E is the sum of the following terms:
     one-electron contribution =       2.80850513 Ry
     hartree contribution      =       0.00906686 Ry
     xc contribution           =      -1.60516017 Ry
     ewald contribution        =      -5.39395543 Ry

     convergence has been achieved in   3 iterations

     Writing output data file ./tmp/Al_exc1.save/

     init_run     :      1.32s CPU      0.12s WALL (       1 calls)
     electrons    :     21.11s CPU      1.91s WALL (       1 calls)

     Called by init_run:
     wfcinit      :      1.31s CPU      0.11s WALL (       1 calls)
     wfcinit:atom :      0.08s CPU      0.01s WALL (     408 calls)
     wfcinit:wfcr :      1.03s CPU      0.09s WALL (     408 calls)
     potinit      :      0.00s CPU      0.00s WALL (       1 calls)
     hinit0       :      0.00s CPU      0.00s WALL (       1 calls)

     Called by electrons:
     c_bands      :     20.42s CPU      1.80s WALL (       4 calls)
     sum_band     :      0.67s CPU      0.11s WALL (       4 calls)
     v_of_rho     :      0.00s CPU      0.00s WALL (       4 calls)
     v_h          :      0.00s CPU      0.00s WALL (       4 calls)
     v_xc         :      0.00s CPU      0.00s WALL (       4 calls)
     mix_rho      :      0.00s CPU      0.00s WALL (       4 calls)

     Called by c_bands:
     init_us_2    :      0.40s CPU      0.04s WALL (    3672 calls)
     cegterg      :     20.01s CPU      1.75s WALL (    1632 calls)

     Called by sum_band:
     sum_band:wei :      0.13s CPU      0.01s WALL (       4 calls)
     sum_band:loo :      0.54s CPU      0.10s WALL (       4 calls)
     sum_band:buf :      0.00s CPU      0.00s WALL (    1632 calls)
     sum_band:ini :      0.09s CPU      0.02s WALL (    1632 calls)

     Called by *egterg:
     cdiaghg      :     12.20s CPU      1.10s WALL (    5288 calls)
     cegterg:over :      0.22s CPU      0.02s WALL (    4064 calls)
     cegterg:upda :      0.19s CPU      0.02s WALL (    4064 calls)
     cegterg:last :      0.22s CPU      0.02s WALL (    3115 calls)
     h_psi        :      7.25s CPU      0.61s WALL (    6104 calls)
     g_psi        :      0.07s CPU      0.01s WALL (    4064 calls)

     Called by h_psi:
     h_psi:calbec :      0.33s CPU      0.04s WALL (    6104 calls)
     vloc_psi     :      6.30s CPU      0.52s WALL (    6104 calls)
     add_vuspsi   :      0.16s CPU      0.01s WALL (    6104 calls)

     General routines
     calbec       :      0.22s CPU      0.01s WALL (    6104 calls)
     fft          :      0.00s CPU      0.00s WALL (      12 calls)
     ffts         :      0.00s CPU      0.00s WALL (       4 calls)
     fftw         :      4.66s CPU      0.41s WALL (   66656 calls)


     PWSCF        :     22.48s CPU      2.09s WALL


   This run was terminated on:  13:14:38   6Mar2023            

=------------------------------------------------------------------------------=
   JOB DONE.
=------------------------------------------------------------------------------=
