
     Program PWSCF v.6.6 starts on 17Feb2023 at  9:45:35 

     This program is part of the open-source Quantum ESPRESSO suite
     for quantum simulation of materials; please cite
         "P. Giannozzi et al., J. Phys.:Condens. Matter 21 395502 (2009);
         "P. Giannozzi et al., J. Phys.:Condens. Matter 29 465901 (2017);
          URL http://www.quantum-espresso.org", 
     in publications or presentations arising from this work. More details at
     http://www.quantum-espresso.org/quote

     Serial version
     Fft bands division:     nmany     =       1
     Waiting for input...
     Reading input from standard input

     Current dimensions of program PWSCF are:
     Max number of different atomic species (ntypx) = 10
     Max number of k-points (npk) =  40000
     Max angular momentum in pseudopotentials (lmaxx) =  3

     G-vector sticks info
     --------------------
     sticks:   dense  smooth     PW     G-vecs:    dense   smooth      PW
     Sum         295     295    109                 3287     3287     701



     bravais-lattice index     =            2
     lattice parameter (alat)  =      10.2600  a.u.
     unit-cell volume          =     270.0114 (a.u.)^3
     number of atoms/cell      =            2
     number of atomic types    =            1
     number of electrons       =         8.00
     number of Kohn-Sham states=            4
     kinetic-energy cutoff     =      20.0000  Ry
     charge density cutoff     =      80.0000  Ry
     convergence threshold     =      1.0E-06
     mixing beta               =       0.6000
     number of iterations used =            8  plain     mixing
     Exchange-correlation=  SLA  PW   PBE  PBE
                           (   1   4   3   4   0   0   0)

     celldm(1)=  10.260000  celldm(2)=   0.000000  celldm(3)=   0.000000
     celldm(4)=   0.000000  celldm(5)=   0.000000  celldm(6)=   0.000000

     crystal axes: (cart. coord. in units of alat)
               a(1) = (  -0.500000   0.000000   0.500000 )  
               a(2) = (   0.000000   0.500000   0.500000 )  
               a(3) = (  -0.500000   0.500000   0.000000 )  

     reciprocal axes: (cart. coord. in units 2 pi/alat)
               b(1) = ( -1.000000 -1.000000  1.000000 )  
               b(2) = (  1.000000  1.000000  1.000000 )  
               b(3) = ( -1.000000  1.000000 -1.000000 )  


     PseudoPot. # 1 for Si read from file:
     ./Si.pbe-rrkj.UPF
     MD5 check sum: cf7ab5690cd9a85b22c4813f7e365554
     Pseudo is Norm-conserving, Zval =  4.0
     Generated by new atomic code, or converted to UPF format
     Using radial grid of  883 points,  3 beta functions with: 
                l(1) =   0
                l(2) =   0
                l(3) =   1

     atomic species   valence    mass     pseudopotential
        Si             4.00    28.08600     Si( 1.00)

     48 Sym. Ops., with inversion, found (24 have fractional translation)



   Cartesian axes

     site n.     atom                  positions (alat units)
         1           Si  tau(   1) = (   0.0000000   0.0000000   0.0000000  )
         2           Si  tau(   2) = (   0.2500000   0.2500000   0.2500000  )

     number of k points=    28
                       cart. coord. in units 2pi/alat
        k(    1) = (  -0.0833333   0.0833333   0.0833333), wk =   0.0185185
        k(    2) = (  -0.2500000   0.2500000  -0.0833333), wk =   0.0555556
        k(    3) = (  -0.4166667   0.4166667  -0.2500000), wk =   0.0555556
        k(    4) = (   0.4166667  -0.4166667   0.5833333), wk =   0.0555556
        k(    5) = (   0.2500000  -0.2500000   0.4166667), wk =   0.0555556
        k(    6) = (   0.0833333  -0.0833333   0.2500000), wk =   0.0555556
        k(    7) = (  -0.0833333   0.4166667   0.0833333), wk =   0.0555556
        k(    8) = (  -0.2500000   0.5833333  -0.0833333), wk =   0.1111111
        k(    9) = (   0.5833333  -0.2500000   0.7500000), wk =   0.1111111
        k(   10) = (   0.4166667  -0.0833333   0.5833333), wk =   0.1111111
        k(   11) = (   0.2500000   0.0833333   0.4166667), wk =   0.1111111
        k(   12) = (  -0.0833333   0.7500000   0.0833333), wk =   0.0555556
        k(   13) = (   0.7500000  -0.0833333   0.9166667), wk =   0.1111111
        k(   14) = (   0.5833333   0.0833333   0.7500000), wk =   0.1111111
        k(   15) = (   0.4166667   0.2500000   0.5833333), wk =   0.1111111
        k(   16) = (  -0.0833333  -0.9166667   0.0833333), wk =   0.0555556
        k(   17) = (  -0.2500000  -0.7500000  -0.0833333), wk =   0.1111111
        k(   18) = (  -0.0833333  -0.5833333   0.0833333), wk =   0.0555556
        k(   19) = (  -0.2500000   0.2500000   0.2500000), wk =   0.0185185
        k(   20) = (  -0.4166667   0.4166667   0.0833333), wk =   0.0555556
        k(   21) = (   0.4166667  -0.4166667   0.9166667), wk =   0.0555556
        k(   22) = (   0.2500000  -0.2500000   0.7500000), wk =   0.0555556
        k(   23) = (  -0.2500000   0.5833333   0.2500000), wk =   0.0555556
        k(   24) = (   0.5833333  -0.2500000   1.0833333), wk =   0.1111111
        k(   25) = (   0.4166667  -0.0833333   0.9166667), wk =   0.1111111
        k(   26) = (  -0.2500000  -1.0833333   0.2500000), wk =   0.0555556
        k(   27) = (  -0.4166667   0.4166667   0.4166667), wk =   0.0185185
        k(   28) = (   0.4166667  -0.4166667   1.2500000), wk =   0.0555556

     Dense  grid:     3287 G-vectors     FFT dimensions: (  24,  24,  24)

     Estimated max dynamical RAM per process >       3.33 MB

     Initial potential from superposition of free atoms

     starting charge    7.99889, renormalised to    8.00000
     Starting wfcs are    8 randomized atomic wfcs

     total cpu time spent up to now is        0.1 secs

     Self-consistent Calculation

     iteration #  1     ecut=    20.00 Ry     beta= 0.60
     Davidson diagonalization with overlap
     ethr =  1.00E-02,  avg # of iterations =  2.0

     Threshold (ethr) on eigenvalues was too large:
     Diagonalizing with lowered threshold

     Davidson diagonalization with overlap
     ethr =  5.95E-04,  avg # of iterations =  1.8

     total cpu time spent up to now is        0.3 secs

     total energy              =     -15.73907400 Ry
     estimated scf accuracy    <       0.05559146 Ry

     iteration #  2     ecut=    20.00 Ry     beta= 0.60
     Davidson diagonalization with overlap
     ethr =  6.95E-04,  avg # of iterations =  1.0

     total cpu time spent up to now is        0.4 secs

     total energy              =     -15.73976078 Ry
     estimated scf accuracy    <       0.00662950 Ry

     iteration #  3     ecut=    20.00 Ry     beta= 0.60
     Davidson diagonalization with overlap
     ethr =  8.29E-05,  avg # of iterations =  2.0

     total cpu time spent up to now is        0.5 secs

     total energy              =     -15.74063837 Ry
     estimated scf accuracy    <       0.00016968 Ry

     iteration #  4     ecut=    20.00 Ry     beta= 0.60
     Davidson diagonalization with overlap
     ethr =  2.12E-06,  avg # of iterations =  4.0

     total cpu time spent up to now is        0.7 secs

     total energy              =     -15.74071200 Ry
     estimated scf accuracy    <       0.00006142 Ry

     iteration #  5     ecut=    20.00 Ry     beta= 0.60
     Davidson diagonalization with overlap
     ethr =  7.68E-07,  avg # of iterations =  2.4

     total cpu time spent up to now is        0.8 secs

     End of self-consistent calculation

          k =-0.0833 0.0833 0.0833 (   405 PWs)   bands (ev):

    -5.5769   5.3939   6.0959   6.0959

          k =-0.2500 0.2500-0.0833 (   399 PWs)   bands (ev):

    -5.0985   3.3257   4.8606   5.8871

          k =-0.4167 0.4167-0.2500 (   409 PWs)   bands (ev):

    -4.0003   0.5564   4.4001   5.2491

          k = 0.4167-0.4167 0.5833 (   407 PWs)   bands (ev):

    -3.2938  -0.5962   4.4694   4.8668

          k = 0.2500-0.2500 0.4167 (   405 PWs)   bands (ev):

    -4.4149   1.4062   4.9256   4.9702

          k = 0.0833-0.0833 0.2500 (   401 PWs)   bands (ev):

    -5.3354   4.3366   5.4477   5.6428

          k =-0.0833 0.4167 0.0833 (   404 PWs)   bands (ev):

    -4.8566   3.1509   4.7082   4.7155

          k =-0.2500 0.5833-0.0833 (   409 PWs)   bands (ev):

    -3.9423   1.3121   3.3830   4.3297

          k = 0.5833-0.2500 0.7500 (   409 PWs)   bands (ev):

    -2.8158  -0.4537   2.7855   4.0996

          k = 0.4167-0.0833 0.5833 (   411 PWs)   bands (ev):

    -3.5449   0.6143   2.7375   4.5898

          k = 0.2500 0.0833 0.4167 (   404 PWs)   bands (ev):

    -4.6301   2.3065   4.0829   5.2631

          k =-0.0833 0.7500 0.0833 (   413 PWs)   bands (ev):

    -3.2288   0.4939   3.3420   3.6839

          k = 0.7500-0.0833 0.9167 (   411 PWs)   bands (ev):

    -2.0263  -0.8484   2.4939   3.2746

          k = 0.5833 0.0833 0.7500 (   405 PWs)   bands (ev):

    -2.3945  -0.5203   2.0108   3.8229

          k = 0.4167 0.2500 0.5833 (   407 PWs)   bands (ev):

    -3.4302  -0.0862   3.6918   4.6881

          k =-0.0833-0.9167 0.0833 (   413 PWs)   bands (ev):

    -2.1206  -0.8574   3.0708   3.4679

          k =-0.2500-0.7500-0.0833 (   410 PWs)   bands (ev):

    -3.0583   0.2681   2.8207   3.6159

          k =-0.0833-0.5833 0.0833 (   413 PWs)   bands (ev):

    -4.1493   1.8586   3.8912   4.1073

          k =-0.2500 0.2500 0.2500 (   401 PWs)   bands (ev):

    -4.8679   2.3422   5.4819   5.4819

          k =-0.4167 0.4167 0.0833 (   404 PWs)   bands (ev):

    -4.1857   1.4181   3.3480   5.3131

          k = 0.4167-0.4167 0.9167 (   406 PWs)   bands (ev):

    -2.9990  -0.0197   2.2337   4.5232

          k = 0.2500-0.2500 0.7500 (   412 PWs)   bands (ev):

    -2.9475  -0.0988   2.7175   4.0389

          k =-0.2500 0.5833 0.2500 (   412 PWs)   bands (ev):

    -3.7593   0.6058   3.8227   4.4133

          k = 0.5833-0.2500 1.0833 (   409 PWs)   bands (ev):

    -2.7517  -0.1260   2.3328   3.6132

          k = 0.4167-0.0833 0.9167 (   405 PWs)   bands (ev):

    -1.9162  -0.8562   2.1623   2.9416

          k =-0.2500-1.0833 0.2500 (   410 PWs)   bands (ev):

    -2.1271  -0.7667   2.0355   3.8436

          k =-0.4167 0.4167 0.4167 (   413 PWs)   bands (ev):

    -3.6674  -0.1934   5.0935   5.0935

          k = 0.4167-0.4167 1.2500 (   406 PWs)   bands (ev):

    -3.0577  -0.4914   3.2644   4.6508

     highest occupied level (ev):     6.0959

!    total energy              =     -15.74072239 Ry
     estimated scf accuracy    <       0.00000078 Ry

     The total energy is the sum of the following terms:
     one-electron contribution =       4.77942886 Ry
     hartree contribution      =       1.09393989 Ry
     xc contribution           =      -4.81316155 Ry
     ewald contribution        =     -16.80092959 Ry

     convergence has been achieved in   5 iterations

     Writing output data file ./tmp/Si_exc1.save/

     init_run     :      0.83s CPU      0.10s WALL (       1 calls)
     electrons    :      7.42s CPU      0.65s WALL (       1 calls)

     Called by init_run:
     wfcinit      :      0.79s CPU      0.07s WALL (       1 calls)
     potinit      :      0.01s CPU      0.01s WALL (       1 calls)
     hinit0       :      0.02s CPU      0.02s WALL (       1 calls)

     Called by electrons:
     c_bands      :      6.40s CPU      0.54s WALL (       6 calls)
     sum_band     :      0.89s CPU      0.09s WALL (       6 calls)
     v_of_rho     :      0.13s CPU      0.03s WALL (       6 calls)
     mix_rho      :      0.00s CPU      0.00s WALL (       6 calls)

     Called by c_bands:
     init_us_2    :      0.31s CPU      0.02s WALL (     364 calls)
     cegterg      :      6.17s CPU      0.52s WALL (     168 calls)

     Called by *egterg:
     cdiaghg      :      0.34s CPU      0.03s WALL (     509 calls)
     h_psi        :      6.27s CPU      0.53s WALL (     565 calls)
     g_psi        :      0.01s CPU      0.00s WALL (     369 calls)

     Called by h_psi:
     h_psi:calbec :      0.07s CPU      0.01s WALL (     565 calls)
     vloc_psi     :      6.05s CPU      0.51s WALL (     565 calls)
     add_vuspsi   :      0.12s CPU      0.01s WALL (     565 calls)

     General routines
     calbec       :      0.07s CPU      0.01s WALL (     565 calls)
     fft          :      0.04s CPU      0.01s WALL (      60 calls)
     ffts         :      0.00s CPU      0.00s WALL (       6 calls)
     fftw         :      5.86s CPU      0.52s WALL (    4804 calls)


     PWSCF        :      8.29s CPU      0.80s WALL


   This run was terminated on:   9:45:36  17Feb2023            

=------------------------------------------------------------------------------=
   JOB DONE.
=------------------------------------------------------------------------------=
